/*--------------------------------*- C++ -*----------------------------------*\
| =========                 |                                                 |
| \\      /  F ield         | OpenFOAM: The Open Source CFD Toolbox           |
|  \\    /   O peration     | Version:  2506                                  |
|   \\  /    A nd           | Website:  www.openfoam.com                      |
|    \\/     M anipulation  |                                                 |
\*---------------------------------------------------------------------------*/
FoamFile
{
    version     2.0;
    format      ascii;
    arch        "LSB;label=32;scalar=64";
    class       volScalarField;
    location    "3";
    object      epsilon;
}
// * * * * * * * * * * * * * * * * * * * * * * * * * * * * * * * * * * * * * //

dimensions      [0 2 -3 0 0 0 0];

internalField   nonuniform List<scalar> 
104960
(
2.24879762317
0.173493562865
0.087932666122
0.114824641965
0.229811743019
0.418674596914
0.443029702093
0.299770080958
0.17102767062
0.109362028727
0.0773667920696
0.061424835302
0.0535889513453
0.0494879906925
0.0484466644159
0.0513583581562
0.057004196804
0.0611088687034
0.0597530991542
0.0552126682313
0.05206155123
0.0518157209494
0.0524074759628
0.0507257149734
0.0459093256162
0.0386450832422
0.0299012009956
0.0212084430594
0.0140802662502
0.00947410665397
0.00766517979769
0.00812374285275
0.010312967533
0.0139789799725
0.0191301218411
0.0259090354135
0.0339199379498
0.0427292619399
0.0527145267061
0.0625821802368
0.070093275802
0.0775931852355
0.0866197150774
0.0961888356173
0.10619522424
0.116854969632
0.128314522386
0.140545526845
0.153364889178
0.166519447958
3.27543511236
0.277451004015
0.0950327916416
0.0470035405103
0.028204892718
0.0190507479324
0.013919366268
0.0107669310055
0.00869084520269
0.00723847683984
0.00617386475884
0.00537117912088
0.0047486657467
0.00425603136783
0.00385973377277
0.00353338540998
0.00325737766337
0.00302038380102
0.00281628332675
0.0026397911998
0.00248491389538
0.00234740167165
0.00222699536627
0.00212646386942
0.0020487494997
0.00199410639997
0.00196074688737
0.00194669244845
0.00195361864395
0.00199638329899
0.00215160259479
0.00290534934516
0.0065183058802
0.018760682318
0.0220523719537
0.00716363422168
0.00240846057624
0.00130103097357
0.00107597061809
0.00101341113978
0.000983809819324
0.000964329732339
0.000950684323733
0.000941134710461
0.000934280287773
0.00092868513069
0.000923238944147
0.000917407146089
0.000911185140964
0.00090485494615
3.7500247714
0.395333725342
0.139803291091
0.0691401987849
0.0409551246964
0.0271309957378
0.0193829239789
0.0146178634555
0.011481070078
0.00930577415947
0.00773428715747
0.00656234482109
0.00566584110114
0.0049651158007
0.00440651354664
0.00395245447926
0.00357633446039
0.00325981756511
0.00298992498333
0.00275728999713
0.00255535902123
0.00238055254464
0.00223199879847
0.00211030854426
0.00201541037095
0.00194597341458
0.00189845150129
0.00186710742164
0.00184499516253
0.00182542037145
0.00180329166498
0.00177744729691
0.00175626718901
0.00179541827902
0.00228312940592
0.00492661491075
0.0137849488987
0.016770069596
0.00500827232018
0.00189293210502
0.00120688211219
0.00104104786053
0.00099328543723
0.000973111398285
0.000961706903881
0.000952909595817
0.000943952783028
0.000934375952844
0.000924578838914
0.000915208200072
4.05158557805
0.476547399653
0.172487484735
0.0859781455899
0.0509838699789
0.0336928090417
0.0239681117998
0.0179802338312
0.0140391556753
0.0113093945707
0.00934070418748
0.00787361574091
0.00675066695856
0.00587186938418
0.00517052461034
0.00460026802628
0.00412827871079
0.00373147597002
0.00339296334864
0.00310105042166
0.00284818737951
0.00263048073685
0.00244694168535
0.00229850828355
0.00218586776411
0.0021080319545
0.00206159787119
0.00203993608735
0.00203366163163
0.00203185670884
0.00202356137379
0.00199960933993
0.00195488181269
0.00189041271269
0.00181867358004
0.00179133450645
0.00210989490877
0.0039309094857
0.00998011824307
0.0143042133958
0.00519492923402
0.00206724902652
0.00135185888722
0.00112012891128
0.00104589762452
0.00101230185509
0.00098850575444
0.000968485822862
0.000950394736236
0.000934715647229
4.26945832226
0.538564079417
0.198217889597
0.0994768353153
0.0591335063526
0.0390875374127
0.0277802505292
0.0208099019383
0.0162226070389
0.0130485922463
0.010763399057
0.00906340698679
0.00776300947764
0.00674396462498
0.0059280807113
0.00526158712209
0.00470668294308
0.00423688619971
0.00383297479251
0.00348204992738
0.0031761390764
0.00291152778838
0.00268799709209
0.00250769509192
0.00237411217106
0.00228781350347
0.00224667665389
0.00224405477434
0.00226896099512
0.00230752577901
0.00234419499445
0.0023620451643
0.00234414160336
0.00227839875603
0.00216730618717
0.00202604694105
0.00187747973435
0.00181842794014
0.00221531159817
0.00399596130401
0.00859983860075
0.00949115602651
0.00368934038795
0.00191477559299
0.00144020950694
0.00120728948884
0.001104106565
0.00104287840054
0.00100025898659
0.000970241840938
4.43837174452
0.588704584605
0.219437721954
0.110727233127
0.0659725022845
0.0436381275859
0.031010422035
0.0232191320712
0.0180931925647
0.0145518216674
0.0120090534096
0.010124370463
0.00868800721779
0.0075644950904
0.00666345731238
0.00592311058117
0.00530070068157
0.00476724200397
0.00430220209681
0.00389265864649
0.00353131256582
0.00321560072355
0.00294709697366
0.00273052718549
0.00257379788784
0.0024823166368
0.00245666912213
0.00249097355645
0.0025851612854
0.00279799445516
0.00308834860418
0.00312592720924
0.00299055305348
0.00291008055386
0.0027787124617
0.00256766879837
0.00230508483651
0.0020297024109
0.00180721664422
0.00179914381497
0.00233489797815
0.00399218435177
0.00655168471538
0.00510119958094
0.00242705906627
0.00175638431184
0.00144304495972
0.00121994619769
0.00110507522695
0.00103835941301
4.57531419707
0.630733524855
0.237472003432
0.120345881815
0.0718336583676
0.0475397172318
0.0337781173475
0.0252819176252
0.0196958482124
0.0158450831514
0.013091823188
0.0110644621295
0.00953212112608
0.00834263588605
0.00739135271264
0.00660548806731
0.00593554130892
0.00535021572305
0.00482895795513
0.00436071858897
0.0039409157599
0.00356998416629
0.00325310210201
0.00300023533845
0.00282743965372
0.00275581032922
0.002862082456
0.00823299403714
0.0797750447063
0.370144034034
0.845725442892
1.11123878256
0.793512262046
0.201278117086
0.0132947210225
0.00373299530596
0.00309924189497
0.00260881179651
0.00216268213842
0.00181357875346
0.0016405208789
0.00176322572734
0.00234381711533
0.00346572185526
0.00391153024728
0.00255124059892
0.00184377244288
0.00154720185239
0.00128703475665
0.00116120450429
4.68982828396
0.666845023773
0.253115139274
0.12870737307
0.0769195762325
0.0509096792977
0.0361526925937
0.0270379626165
0.0210508442515
0.0169360208371
0.0140125474084
0.0118838936263
0.0103016751071
0.00909688261608
0.00814591364708
0.00735760736436
0.00667010507107
0.00604910943781
0.00547644689329
0.00494719503283
0.00446399782608
0.00403459725597
0.00367260885081
0.00340141287624
0.00326342735112
0.00388734692942
0.143148600183
2.10443992861
6.05478089714
9.22806184536
11.2904958716
12.6083994511
13.0190893693
11.6373112023
7.47794543424
2.29104971387
0.150101307452
0.00576648000428
0.00286008473584
0.00221837038509
0.00178383477408
0.00154818077379
0.00153350581384
0.00177356254848
0.00227752237057
0.00267229387133
0.00228672832289
0.00202499453142
0.00168297681539
0.00147153480326
4.78781256291
0.698438231114
0.266883283231
0.136056582867
0.0813619250541
0.0538223288677
0.038175074947
0.0285064689074
0.0221621621707
0.0178183342834
0.0147606704095
0.0125774541194
0.0110109590468
0.00987593404991
0.00901755426699
0.00830550191482
0.00764960438672
0.00701137692696
0.00638295637341
0.00577745970508
0.00521586602852
0.00472328777167
0.00433598482667
0.00412517759921
0.00446907824051
0.540946002678
9.05564340834
15.6893412598
15.6326598763
14.6183825476
14.5614335521
15.8294794935
18.2985536242
20.7988976856
21.0055722073
16.0132340849
7.24718132133
1.18078036971
0.0448651354281
0.00337401522808
0.00217399379772
0.00172720246877
0.00150628094538
0.0014888517758
0.001692469635
0.00218445165193
0.00335877467387
0.00579665253133
0.00637922329152
0.00608552851849
4.87318285728
0.726471859325
0.279138734135
0.142568747166
0.0852565852505
0.0563325356055
0.039875335943
0.0297002507822
0.0230293355365
0.0184820587955
0.0153249291268
0.0131530662853
0.0117272705896
0.0108662371191
0.010340862153
0.00989672052249
0.00935105045769
0.00867397696197
0.00791117197851
0.007142968822
0.00643672968065
0.00585286987632
0.00548553120329
0.00559930263492
0.212222550867
16.1810917592
24.51326259
12.7756829576
6.18977899172
4.39567964087
5.34615002994
8.53281238057
13.0308965104
18.0168435429
23.1733074356
25.2075241673
19.2420133541
8.34709980545
1.26638794965
0.0488020644288
0.00334953186909
0.00206957180163
0.00169873353533
0.00157136709116
0.00170017340879
0.00272125991268
0.011919367547
0.0341095083397
0.0446439142979
0.0418720199227
4.94869206348
0.751647325748
0.290158323611
0.148385162984
0.0886869608726
0.0584935664223
0.0412882232711
0.0306405948787
0.0236625709169
0.0189299557218
0.0157159573219
0.0136837890412
0.0130177498641
0.0143916393722
0.0411137099072
0.0795172668219
0.0607866584452
0.0353140877401
0.0140624001646
0.0106442125716
0.00891338952489
0.00793535470577
0.00757913894983
0.0142603162655
10.7686996218
36.7964268886
20.3426507616
6.58619014858
1.90906489299
1.42452334844
3.92275664451
8.7636765109
13.2803705979
16.4144706671
19.9130634408
25.1815120998
26.1471063892
16.8883957959
5.47878528528
0.456727577189
0.0144978902968
0.00264583407739
0.00201079626655
0.0018275250689
0.00230503204347
0.0117932293663
0.069843379801
0.124381369573
0.119746207161
0.0936737540744
5.01637352329
0.774510871051
0.30017280133
0.153635206648
0.0917396645574
0.0603703354417
0.0424659548442
0.0313710872146
0.0240989129081
0.0191980888334
0.0160001106595
0.0146978650926
0.0218005513453
0.148011428023
2.1610860636
7.32349061047
9.54642274501
6.49892001556
6.70279621087
0.505654765683
0.072465629392
0.0201333988306
0.0132230171956
0.59609445711
29.377615208
44.4370416894
31.0545466063
8.77201237248
1.46074180917
1.21083964775
5.15696816926
10.9804995493
14.205525207
15.4539436156
17.1192471777
21.4963109252
26.8576711945
22.3692424252
10.0977074585
1.46282578244
0.0548371642255
0.00382012855964
0.00244072070212
0.00244495761061
0.010005872161
0.0736361632199
0.165284485665
0.147175032073
0.0866649773034
0.0510166624273
5.07778117269
0.795508425423
0.309387914058
0.158447790461
0.0945119816072
0.0620456858156
0.0434847830102
0.0319653244074
0.0244119257396
0.0193681037751
0.0166422888782
0.0187603177364
0.227048234362
5.32979026923
234.442459546
627.182818731
163.276437329
68.7902876442
3.63226397167
0.475040494649
0.0819941925138
4.32018630535
37.499911725
69.771921809
49.6912043888
9.83777801132
0.916886998758
1.3318111288
7.12700350419
12.7835913887
14.3625411064
14.9947826674
15.8149597745
18.694021424
24.8958197816
24.1363047568
12.8198345715
2.40417395951
0.0994886345139
0.0052164643984
0.00316638482462
0.00908759163637
0.0704461303707
0.193121173479
0.20642729963
0.127069694921
0.0588656568197
0.0241350263946
5.13411523343
0.815012322565
0.317990825452
0.162951332702
0.0971095868338
0.063616704056
0.0444404509754
0.0325220095729
0.024704848038
0.0195468755387
0.0171169134772
0.078685206227
1.62968730524
86.480929313
175.689033579
60.9791811793
7.0828255686
0.660091834657
11.5449818626
56.6320855337
104.906723052
56.8140448301
7.04621085639
0.374489014559
1.82520782896
9.77545207941
14.5062144097
15.8248426594
16.8925995354
17.1159767532
18.3122801237
23.2249840948
23.3318320403
13.0931309389
2.42630555327
0.0917759214623
0.00588022897979
0.0109028656634
0.0971166724513
0.31760018147
0.392497755718
0.248396221888
0.114642323921
0.0490686400507
0.0202925564978
5.18631915386
0.833332014443
0.326146811777
0.167265592715
0.0996353710201
0.0651810466824
0.045431805336
0.0331452942124
0.0250866744793
0.0198236268355
0.0176669546222
0.0368945813895
231.410388104
91.6061405967
64.9055203951
23.296973545
3.42458050068
33.5385569529
112.085631748
128.979525554
35.8413644968
2.31142760052
0.10342422458
2.66978921662
12.9193253928
16.6060085173
18.344677403
19.4508366049
18.9418138845
18.9198213822
22.0368242624
20.7247107726
11.0775540069
1.49884670817
0.0456130587839
0.0182355838569
0.21893910025
0.734265804802
0.808116124714
0.481029693866
0.23738528676
0.102972482719
0.0401686767441
0.0148529606683
5.23511277951
0.850713706536
0.333989048079
0.171487903697
0.102172988733
0.0668176908502
0.0465379977949
0.0339171551773
0.0256389882859
0.0202385534406
0.0180347741183
0.0362924068666
272.573559533
97.2441141423
30.1482041153
24.7854432167
41.0936745785
126.486447041
179.320998681
84.7060278593
8.23947406155
0.272771981221
0.0457378805677
3.585740111
16.0481663265
18.6922104773
20.3840690238
20.9255950943
19.6136931382
18.9566689512
20.0663355852
16.516069793
7.08811358534
0.505976803786
0.0381104498449
0.589908990926
2.18632104619
2.50969953841
1.81236515503
1.03050319512
0.45899533703
0.169892817544
0.0540210889092
0.0156719922003
5.28102258895
0.86733506101
0.34160803741
0.175679875401
0.104771649667
0.0685695738286
0.0477983556982
0.034874150957
0.0263948959104
0.0208141558168
0.0181854563918
0.0327276518882
0.453716464507
144.349957362
155.838820949
112.138460821
117.872416325
168.061067481
214.309521177
108.935746673
10.9651153513
0.492765899673
0.0212243099345
0.0317005866848
3.97772264838
18.4692798546
20.065356175
20.8946957124
20.5208845321
18.7050664062
17.5923642113
16.3577208376
11.1813167727
2.5605509525
0.11637864176
1.05783426607
4.9188209026
6.86648422097
6.55070104944
5.21309477502
3.22111523398
1.37736596501
0.432612650757
0.112637685173
0.025610288293
5.32441161832
0.883307273383
0.349048506212
0.179862586868
0.107440452174
0.0704374833973
0.0492073255162
0.0360103596983
0.0273437023686
0.0215487045241
0.0180980369931
0.0199714837396
0.21600702444
102.777450029
114.731795155
138.635806342
170.365045815
191.387229129
208.207377514
98.72291848
9.47088341281
0.456313092117
0.0223826105672
0.0073351522797
0.0181604879583
3.29665608872
19.3964344299
20.4859759102
19.7530191503
18.3736956371
16.3329937379
14.453243204
11.4351844932
5.25137280248
0.456497776826
0.922012922324
5.73953515083
8.89796687482
8.72328332081
7.85283662502
6.87946055723
5.51574759388
3.26590832061
1.11282414397
0.257401571931
0.0485117481772
5.36553170723
0.898685690492
0.356315440379
0.184021771277
0.110154109014
0.0723909494019
0.050722767267
0.0372534581185
0.0284044577774
0.022417725019
0.0184714592894
0.0165426125305
0.0270457412941
0.315342589475
40.8216215607
246.064723591
351.987931703
151.929950809
173.877735188
260.791884916
254.577813413
213.088704555
62.4912467629
4.00605323695
0.129020451086
0.0121665882047
0.00682593436722
0.00617092534556
0.00908853436116
1.74962391311
17.6548654162
20.2145056479
17.7832628486
15.4129428532
13.0664765597
10.5050534193
6.30469232087
1.21125480284
0.49201629795
4.14125392483
8.22846352283
8.6503233668
8.34038123327
7.96573790991
7.3272691248
6.4096882636
4.89249204642
2.26486157746
0.531365586537
0.0878775265289
5.40455109169
0.913489146037
0.363389149163
0.188124614907
0.112869972032
0.0743663632193
0.0522714881915
0.0385395126349
0.029510884922
0.0233568403735
0.0191219634127
0.0163383657318
0.0148969903267
0.0224681017186
0.460472141837
2.16783138299
5.26170326566
8.02123233947
1.72400216205
1.33390303785
0.674466997403
0.21898572747
0.0479620713222
0.0131920475245
0.00788820022752
0.00652288033307
0.00580576769192
0.00545440993858
0.00588725129978
0.458364076002
12.1515152807
19.2351014195
15.6719830779
12.7304887938
9.95646877084
6.44750809537
2.0575780895
0.380536266881
2.08225472581
6.28964967993
7.98208481788
8.39151761019
8.74891367573
8.60900136809
8.02742017097
7.14127765048
5.77295724041
3.37984521815
0.894549510728
0.135827212017
5.4415810848
0.927715179999
0.370237592713
0.192120428082
0.115529898909
0.0763121467682
0.0537991133862
0.0398037364509
0.0305925995768
0.0242838925478
0.0198594985092
0.016739996912
0.0145726409363
0.0130939478148
0.0121246643833
0.0120951874067
0.0134446275498
0.0146713796128
0.0140957849346
0.0116683159386
0.00944879894903
0.00822795239107
0.00753452913089
0.00688778179394
0.00621480598552
0.00560409776247
0.00512373881442
0.00482702262198
0.00485123570038
0.0444638282241
4.72781071687
15.9732197134
12.8740181629
9.49689256317
6.22363965836
2.73843332064
0.677459053395
0.853021626185
3.84764864841
6.91148427543
7.89841563136
8.63839329777
9.04817655211
8.77752314517
8.27135656866
7.7180658764
6.37977736157
4.01653805558
1.16929180972
0.164858764635
5.47671616238
0.941351619563
0.376828205065
0.195975643004
0.118096952856
0.0781850442133
0.0552599341151
0.0409995178248
0.0316018049507
0.0251421990077
0.0205674456299
0.0172623860733
0.0148415036235
0.0130402823643
0.011664785484
0.0105766138231
0.00968659699522
0.00893890126382
0.00830228560986
0.00775800565114
0.00728752506197
0.00685299235406
0.00640952105702
0.00593681131738
0.00545316531978
0.00499701158456
0.00460618854669
0.00431967537264
0.00420869647542
0.00517457163023
0.544303259936
8.28681821492
11.3363384519
6.4253373612
3.43582350796
1.40515172462
0.568748336255
1.62576334798
4.91768588194
7.30191586786
8.09805475665
8.65839697041
8.79522991045
8.33032622163
7.95875228196
7.93395906315
6.70766028876
4.10016093225
1.15566827392
0.145068705218
5.51003770003
0.954396777245
0.383142710446
0.199664899391
0.120543926391
0.0799577084839
0.0566276721197
0.0421026819858
0.032516579708
0.025907979916
0.0211992933928
0.0177581609786
0.0151901953973
0.0132348734562
0.0117125873767
0.0104982259527
0.00950662986859
0.00867904280031
0.00797628365594
0.00736880755728
0.00683175823153
0.00634064218867
0.00587485953092
0.00542429464453
0.00499189823998
0.00458965615392
0.00423345582395
0.00394325659935
0.00375297135075
0.00374361398192
0.0119785581317
1.26138538675
7.18866485014
7.40041210757
3.39278715116
1.32254213472
0.711179741536
1.85355710588
5.10020865475
7.43031407344
8.1427011584
8.28415929007
8.05024217002
7.51449196468
7.57217738387
8.03421178708
6.54962823918
3.53161582391
0.809469708356
0.0828142918593
5.54163211863
0.966856350448
0.389173096104
0.203176307835
0.122858484694
0.0816189702109
0.0578934885325
0.0431077200707
0.0333350499526
0.0265810748231
0.0217485145495
0.0181930794957
0.0155148669292
0.0134535168416
0.0118330287465
0.010531830235
0.00946554301184
0.00857384742654
0.0078144137357
0.00715553813444
0.00657300015532
0.00604758932935
0.00556524715398
0.0051177275351
0.00470249216572
0.00432140775426
0.00397936723043
0.00368450824008
0.00345158506452
0.00331095094921
0.00335238419656
0.0265606072628
1.32836217636
5.25325272268
6.10993009321
3.69101723692
1.46728650496
1.4430409693
3.9267783749
6.57457225022
7.57603687818
7.54817437332
7.13588215529
6.98063361835
7.89357741997
7.99566311245
5.50782551364
2.22085161034
0.337209744465
0.0256205163473
5.57159313847
0.978746523135
0.394922822637
0.20651005742
0.125040509703
0.0831699916749
0.0590608848973
0.0440211463014
0.0340670326869
0.0271735853495
0.0222260372277
0.018570089674
0.0158007674213
0.0136560298341
0.0119601275009
0.0105921097385
0.00946748782103
0.00852539420222
0.00772254903904
0.00702699559242
0.00641514573865
0.00586944486099
0.0053772384717
0.00492991685024
0.00452214692984
0.00415115297479
0.00381628753483
0.00351931458636
0.00326586580088
0.00306843895117
0.00295153353805
0.00303046874192
0.0293240964343
0.807049296326
3.47471753664
5.46586773261
5.21488959511
3.79179862879
3.32956867383
4.73687122371
6.20251387485
6.79206031062
7.19061295116
8.13705706393
8.52240782324
6.51854316734
3.17737304714
0.68339836051
0.056952491722
0.00423855085714
5.6000212442
0.990092641715
0.400403892642
0.209674720152
0.127098035335
0.0846196523358
0.0601403736167
0.0448556929054
0.034727447588
0.0277018838532
0.0226480808557
0.0189025265
0.0160551911504
0.0138415409126
0.0120848151652
0.0106636233963
0.0094930137573
0.00851181100732
0.00767633941802
0.00695458572413
0.00632310410592
0.00576461821504
0.00526640103139
0.00481901514747
0.00441539223451
0.00405027294946
0.00372006091223
0.00342317326282
0.0031609440068
0.00293892535188
0.00276815244907
0.00266685428046
0.00272157889234
0.0123011470053
0.264471885461
1.62658172484
3.78017823836
5.37450483781
6.08493042738
6.50442077101
7.1653462899
7.94104157551
8.4271798276
7.93998839499
5.76142691678
2.70065327458
0.5636241946
0.0425032780068
0.00339880731216
0.00181158727919
5.62701761912
1.00092691647
0.405634415569
0.212684184017
0.129043755051
0.0859806896111
0.0611454947987
0.0456259532192
0.035331885706
0.0281821566773
0.0230305282105
0.0192046734899
0.0162894848342
0.0140175590079
0.012210564262
0.0107461969137
0.00953883543089
0.00852693831147
0.00766647046964
0.00692522796072
0.00627960132968
0.00571210435444
0.00520956235137
0.00476174430255
0.00436041717598
0.00399884994389
0.0036717804262
0.0033758305813
0.00311025589024
0.0028776907376
0.00268437089368
0.00253982155585
0.00245609358395
0.0024540583063
0.00350106772514
0.0308442393552
0.275829006345
1.10852519411
2.40674522918
3.63872717242
4.44940937547
4.61396803596
3.89622650386
2.27729335581
0.660545116727
0.0653161839265
0.00476060630121
0.00200577903536
0.00175658647301
0.00160844372019
5.6526820446
1.01128638858
0.410637437677
0.215556239576
0.130893135236
0.0872675873654
0.0620904231281
0.0463461610386
0.0358946912202
0.0286286009493
0.0233869573084
0.0194888542351
0.0165140671876
0.0141921278018
0.0123428466605
0.0108427535345
0.00960541431896
0.00856879560737
0.00768842384106
0.00693176582995
0.00627490056162
0.00569998833548
0.00519337306819
0.00474418284116
0.00434338882125
0.00398333943848
0.00365778253797
0.00336234121523
0.00309523869955
0.00285780385474
0.00265430037104
0.00249102296594
0.00237459450117
0.00230955850805
0.0022982508364
0.00235394992332
0.00283707796867
0.00705128456079
0.025935241738
0.0657065940162
0.0948217945648
0.0696631620697
0.0219824750355
0.00448207737003
0.00223412232189
0.00190697021094
0.00175757582101
0.00165314998892
0.00157107256025
0.00149514621714
5.67711264469
1.02122242367
0.415447274672
0.218315815245
0.132665785577
0.0884970871329
0.0629903064893
0.0470304503576
0.0364292557266
0.0290538892391
0.02372911443
0.0197655933153
0.0167379603361
0.0143725451915
0.0124871163708
0.0109568710375
0.00969446628983
0.0086372623644
0.00774025904303
0.00697048847836
0.00630366516693
0.00572158726564
0.00521019211282
0.00475813864388
0.00435586353667
0.00399512994666
0.00366907563467
0.00337274235165
0.00310387176502
0.00286324584747
0.00265424462757
0.002481736808
0.00235054657173
0.0022631579347
0.00221875324444
0.0022120990193
0.00223310187634
0.00226662822379
0.00229386829492
0.00229452925059
0.00224810427225
0.00214588979487
0.00200502315036
0.00185651743308
0.00172791096243
0.00163229334762
0.00159698919376
0.0017466850811
0.00223998980587
0.00293883185326
4.40919082366
1.18682443406
0.461975480351
0.237267930099
0.142196556289
0.0939806579829
0.0664517227
0.0493671713432
0.0380884085677
0.0302787250312
0.0246613493332
0.0204925286563
0.0173159459466
0.014839447376
0.0128692716286
0.0112731434199
0.00995877243897
0.00886017929114
0.0079300958643
0.00713465144215
0.00645382944123
0.0058857469872
0.00544808612792
0.00516348214482
0.00502559496242
0.00496590408045
0.00485725648267
0.00457446283544
0.00407276979476
0.00344183314281
0.00289688654923
0.00257495884876
0.0023862963197
0.00227159326624
0.00220628639533
0.00217805984158
0.00217492292243
0.00218063952569
0.00217583617979
0.00214396121101
0.00208189216228
0.00198253952581
0.00188303380015
0.0037109416042
0.0252132603432
0.126964818175
0.387796029977
0.799975260373
1.24512804902
1.5700982314
0.833905451904
2.80364250448
6.42722469306
0.113678993847
0.429574132641
0.486684325098
2.60770838045
6.78009578522
31.9068413398
18.031641181
4.68580971374
4.05036548156
15.0676639998
33.7260695782
15.622796255
72.7843519859
43.5444982309
14.419914776
10.9502348692
28.19383461
951.460176506
21.0103363039
31.0418512844
35.1303140709
9.86834351675
13.707387754
469.725980748
161.403212037
0.887296373963
1.17131522448
5.60459261595
0.162738497115
0.739165395136
0.352477884856
14.0839681586
19.6746484584
12.4825332711
100.448710011
231.441347477
147.418403668
103.046349732
547.509160262
43.2183818501
202.971590899
91.5160443609
272.140892259
39.4589830607
47.4959879177
0.178672468985
0.0464669233811
0.541728919638
0.0614344726546
0.182357639402
0.0354669650067
0.225594768888
1.03654393208
1.00949865606
1.26273321653
102.381601945
127.210877757
115.465856192
147.964229408
100.925290262
149.93503018
102.218082509
110.514976263
100.123328023
124.01299467
114.756624825
0.137994620267
0.0418431474256
0.322890167139
0.0367597980139
0.170766203852
0.0369846301342
0.166996707372
145.827228342
347.120949283
114.490759427
221.490066821
125.791531498
329.881466357
148.730028949
0.10858795397
0.0400296955937
0.275972466859
0.0359506759761
0.108208200271
0.0355333074498
0.139201264687
170.264078934
215.780952133
146.237038414
283.795567888
165.218948762
276.210037452
155.746612752
0.122261896824
0.0234072119779
0.259307834341
0.0339157147795
0.0990755858958
0.0960452213018
0.163909065067
0.505452206644
0.670655581192
0.839859064756
223.773669426
102.753089411
335.194680938
113.378159925
138.348287534
101.527367143
130.323430769
314.301759795
154.310382592
118.799468078
104.071473967
1.69167542421
0.0347800745312
1.05272432999
0.511046290344
2.43774638986
0.413577439692
0.820492972696
5.00858036404
17.2244016387
3.4279790242
26.5213788534
40.4195601932
48.1328411875
49.5309282833
79.9834087848
67.0550135492
49.7551452392
73.3793136241
97.0558065929
108.704172505
45.0291240274
101.01607323
6.87941713486
0.031641717786
2.49409536862
1.44757234714
6.97753618838
0.403990339257
0.616660562119
141.683554848
1.8042509161
3.62278324779
8.97729221016
39.895903097
5.93251516161
2.80049838756
105.602746505
7.45557162632
10.3132208558
23.2427438413
314.985963013
14.013147662
8.79099157388
300.303197649
15.2102890461
67.6969410454
39.9052729865
115.744190754
22.0190859621
16.3407858839
0.32376503213
0.0683499600605
0.0363683808058
0.0299550073484
0.0424238914273
0.0681712860848
0.0606769423567
0.0374433678638
0.0243939700145
0.0185054643216
0.0155227180689
0.0139232088821
0.0130180256642
0.0125134690001
0.0125105162588
0.0131030646243
0.0138704115965
0.0141623167674
0.0139354105443
0.0138638196922
0.0146211664042
0.0163474444687
0.0187057843595
0.0215254371229
0.0251748484614
0.0294154309736
0.0318481595245
0.0286690584864
0.0199264903451
0.0107878497917
0.00524926245475
0.00276334726194
0.00178092558939
0.00155541072196
0.00170406942984
0.00205315829285
0.00250515171652
0.0030182695636
0.00343452997069
0.00323627468371
0.00293569533366
0.00327763569067
0.00390349159081
0.0046905950389
0.0056375407325
0.00675841659725
0.00805815198694
0.00952420714337
0.0111253538668
0.176497354554
0.995549283499
0.187298053037
0.0721613940133
0.0379785014017
0.0237516589561
0.0165290306725
0.0123678257578
0.00976447196625
0.00801992926067
0.00677454218236
0.00584857987249
0.00514099151989
0.00458648997089
0.00414360393967
0.0037850480352
0.00348702316615
0.00323211954579
0.00301155666248
0.00282132911969
0.00265679805937
0.00251177639245
0.00238261255511
0.00226993391501
0.0021776782019
0.00210929475433
0.00206533084703
0.00204531717145
0.00205072981572
0.00209365603225
0.00224037021053
0.00286749268086
0.00572877306013
0.0164961438943
0.0260196208
0.0103644297344
0.0032585130328
0.0014978854748
0.00112399943978
0.00103541757383
0.000998726365047
0.000975261496302
0.000958167991932
0.000945815977928
0.000937148272441
0.000930851441001
0.000925560332329
0.000920289119718
0.000914614355178
0.000908593038578
0.000902483078887
1.35121367434
0.281529082651
0.110620212431
0.0577479164254
0.0353573255528
0.0239542423009
0.0173954800716
0.0132852132632
0.0105404474893
0.00861495830046
0.0072112199635
0.00615698711259
0.00534578110734
0.00470833397338
0.00419750589028
0.00377994430105
0.00343218037667
0.00313823093015
0.00288672715632
0.00266933197793
0.00248029099092
0.00231679572454
0.00217862109711
0.00206636124149
0.00197981379806
0.00191718804089
0.00187446467306
0.00184574903175
0.00182451593927
0.00180501346648
0.00178378277115
0.00176343455278
0.00176707747572
0.00196472918622
0.00332047728494
0.00906133595274
0.0195511654256
0.00919463435353
0.00275557247332
0.00139310074135
0.00108562171999
0.0010060723171
0.000978119481261
0.000963786032978
0.000954716070505
0.000946696016388
0.000938263249746
0.000929238455999
0.000920090189535
0.00091136548217
1.57113590863
0.346600195436
0.138745699998
0.0728311351069
0.0445655000954
0.0300785948804
0.0217230263229
0.0164826567117
0.0129848429656
0.0105350803277
0.00875238061769
0.00741417408339
0.00638396245385
0.00557389220878
0.0049245854374
0.00439442206287
0.00395400196514
0.00358247581782
0.00326470725426
0.00299028736274
0.002752710551
0.00254890854726
0.0023783866247
0.00224227440889
0.00214055838996
0.00207171715885
0.0020314985273
0.00201258900853
0.00200536369001
0.00199923596097
0.00198427075744
0.00195318226332
0.00190336301519
0.00183930304669
0.00178391600912
0.00186100640104
0.0027052811125
0.00631533974411
0.0145525644263
0.00994661500581
0.00304987841878
0.00159722270426
0.00119036416004
0.00106377524884
0.00102042578707
0.000995370854897
0.000976110741548
0.000958506401305
0.000942359194177
0.000928278244197
1.72933643858
0.396327035837
0.160846660441
0.0848987852159
0.0520375951451
0.0351111410488
0.0253242522482
0.0191811586022
0.0150822129152
0.0122149203296
0.0101318619126
0.00857031984897
0.00736799913872
0.00642067060279
0.00565866237863
0.00503359363266
0.00451145392861
0.00406810496993
0.00368624138056
0.00335434584507
0.00306555290663
0.00281702218736
0.00260906342894
0.00244413129322
0.00232474316589