/*--------------------------------*- C++ -*----------------------------------*\
| =========                 |                                                 |
| \\      /  F ield         | OpenFOAM: The Open Source CFD Toolbox           |
|  \\    /   O peration     | Version:  2506                                  |
|   \\  /    A nd           | Website:  www.openfoam.com                      |
|    \\/     M anipulation  |                                                 |
\*---------------------------------------------------------------------------*/
FoamFile
{
    version     2.0;
    format      ascii;
    arch        "LSB;label=32;scalar=64";
    class       volScalarField;
    location    "3";
    object      k;
}
// * * * * * * * * * * * * * * * * * * * * * * * * * * * * * * * * * * * * * //

dimensions      [0 2 -2 0 0 0 0];

internalField   nonuniform List<scalar> 
104960
(
0.121215861526
0.030097983394
0.0266884258722
0.0475155142163
0.110997542804
0.215136340451
0.235287896001
0.167813629607
0.104293057635
0.0726107622954
0.0551189360041
0.0463190910028
0.0422410477007
0.0404540690516
0.0408297226771
0.0440984005322
0.0492004234657
0.0527676877717
0.0520785051237
0.0490816577447
0.0471708970766
0.0473700012996
0.0480464410265
0.0469292403648
0.0434479142676
0.0379360456222
0.0308174451522
0.0231202478829
0.0162212811857
0.0112313198451
0.00866564123302
0.00825551624178
0.00944316969447
0.0118846446594
0.0154466905586
0.0201127884381
0.0256352583376
0.0317437057914
0.0385440576703
0.0455557876939
0.0518569990847
0.0580613599398
0.0649976079289
0.0722087167832
0.0795857456156
0.0872240401446
0.095191406001
0.103447960116
0.111856400583
0.120238880414
0.155217700801
0.0391341045571
0.0220814015433
0.0152695866772
0.0117313103491
0.00960668030105
0.00820345533922
0.0072239979344
0.00651111329504
0.00596827634796
0.0055386293006
0.00519256085096
0.00490760026906
0.00466997941889
0.00447022415517
0.00429861552403
0.00414639139866
0.00400917034457
0.00388580779163
0.00377522089013
0.00367450372968
0.00358141417593
0.00349744402849
0.00342776259998
0.00337850973814
0.00335302379779
0.00335211283223
0.00337628052762
0.003431066427
0.00354113624296
0.00381534048773
0.00484456382362
0.00898015583259
0.0206195302742
0.0233632252979
0.00974577149461
0.00457391376588
0.00317471024037
0.00283915537424
0.00272575247942
0.00266451663329
0.0026212071356
0.00258912316636
0.00256533811962
0.00254729573136
0.002532265854
0.00251809999723
0.00250373713734
0.00248912369904
0.00247475008648
0.16924661083
0.0486351068262
0.027854057022
0.0191841777649
0.0145709351963
0.0117531278851
0.00987111201815
0.00853394967978
0.00754016473982
0.00677558376198
0.00617110030826
0.00568339272602
0.00528365608711
0.00495154644187
0.00467182633123
0.00443247688485
0.00422404990371
0.00403976224165
0.00387472545949
0.00372535942645
0.00358934275432
0.00346638093632
0.00335856448217
0.00326946088095
0.0032021312955
0.00315805692667
0.00313585829582
0.00313114365
0.00313763195701
0.00314897068152
0.00316049426008
0.00317240314884
0.00319833091495
0.00331813058212
0.00401538987485
0.0071150063522
0.0158830313942
0.0186546385934
0.00750301089025
0.00393541729225
0.00300810719735
0.00275076937897
0.00266764907147
0.00262813244535
0.00260325472805
0.00258279224091
0.00256197013526
0.00254015290169
0.00251824492894
0.00249755139779
0.177714638749
0.0544878457058
0.0315921771006
0.0218341729795
0.0165770577579
0.0133397310209
0.0111656296908
0.00961429461603
0.00845707419287
0.00756411402438
0.00685644754552
0.00628346186874
0.00581149270955
0.00541725883857
0.00508360010545
0.00479713932635
0.00454733201959
0.00432618370441
0.0041273887018
0.00394660935361
0.00378159485403
0.00363258822167
0.00350230907262
0.00339536785537
0.00331626281336
0.00326766477505
0.0032491009403
0.00325588425151
0.00327958587883
0.00330951595186
0.00333451007469
0.00334501131415
0.00333563655318
0.00330770704041
0.00327715843607
0.00331621309181
0.00381145997937
0.00606078717199
0.012459467341
0.016675604968
0.00782970427536
0.00421392982388
0.00323663068254
0.00287967716839
0.00275842950905
0.00269885595131
0.00265279752966
0.00261185416548
0.00257386415208
0.00254043458815
0.183639031966
0.0586685281949
0.0343247466328
0.0238032333581
0.0180892967493
0.0145524631377
0.0121693762096
0.0104655931767
0.00919346806379
0.00821187825444
0.00743462360682
0.00680594810592
0.00628805335941
0.00585448155105
0.00548600775372
0.00516788503597
0.00488852297948
0.00463905064874
0.00441246184527
0.00420412772785
0.00401190116438
0.00383654507265
0.00368188076984
0.00355427055795
0.00346161600218
0.00340923428133
0.00339896580762
0.00342693657656
0.0034836991409
0.00355609269171
0.00362889157832
0.00368522834393
0.00370764626097
0.00368253391638
0.00361021462522
0.00350433408992
0.00339200416888
0.00340569281879
0.00402093485172
0.00629417416516
0.0114301492769
0.0125207680666
0.00630570502677
0.0040937659733
0.00341484588217
0.00304435663248
0.00287087680222
0.00276044674546
0.00267847496561
0.00261773072146
0.188127957743
0.0618951886788
0.036463677704
0.0253576970212
0.0192909508676
0.0155216832948
0.0129760707779
0.0111540249845
0.0097936580268
0.00874548257608
0.00791805636612
0.00725190699673
0.00670603160928
0.00625070158905
0.0058636955501
0.00552797277011
0.00523032254161
0.00496098849621
0.00471241802715
0.0044800128001
0.00426205255983
0.00406014283509
0.00387970409652
0.00372984275628
0.00362347060271
0.00357179035678
0.00358069773688
0.00364771979249
0.00377055117268
0.00399203984852
0.00428265686435
0.00437169445497
0.00431596401012
0.00429521292045
0.00421567010632
0.00405155427695
0.00382510355302
0.00357267568281
0.0033789536067
0.00347557123321
0.0043063070858
0.00652769441155
0.00966478811946
0.00814689536276
0.00486115021458
0.00394919611534
0.00346344881506
0.00309052761823
0.00288751031207
0.00276189823253
0.191703821894
0.0645066565673
0.038210952518
0.0266329472574
0.0202787637693
0.0163190308699
0.0136397687067
0.0117205321345
0.0102883673329
0.00918757454557
0.00832316193201
0.00763335219048
0.00707489517171
0.00661493559603
0.00622705371666
0.00588996330373
0.00558729659018
0.00530790600375
0.00504388623951
0.00479134104736
0.00454988869954
0.00432292710011
0.00411862719482
0.00395101363218
0.0038417620665
0.00381873538261
0.00394542035354
0.00816793455379
0.0665128946806
0.31161241449
0.727221364884
0.979865595388
0.725088551331
0.190120177049
0.0136911497316
0.00515371899541
0.00462334686996
0.0041774893568
0.00374399710299
0.00339512208264
0.00326549118515
0.00355307058438
0.0044875787515
0.00612745602356
0.00684082032594
0.00508726254924
0.00407560123277
0.00361822452722
0.0032023338393
0.00299550983162
0.194652146933
0.0666888531415
0.0396796553451
0.027705860047
0.0211082655027
0.0169859105043
0.0141917280544
0.0121886176083
0.0106949245729
0.00955065067223
0.00865918729205
0.00795851254838
0.00740483309661
0.00696247460591
0.00659875905214
0.00628414732482
0.00599547230612
0.00571898943721
0.00544707336214
0.00517850902291
0.00491675951028
0.00466986015356
0.00445261860421
0.00429152121698
0.00423434841045
0.00474022947562
0.107368026373
1.53528693444
4.34242431149
6.64874921461
8.24572017614
9.32300703722
9.74347104394
8.92293992635
6.09315088248
2.05232284424
0.144108759906
0.00717728363851
0.00447664986823
0.00383786736165
0.00338132347549
0.00315694529175
0.00324278613663
0.00371115187785
0.00456464395618
0.00521463932869
0.00468108620066
0.0043132154816
0.00379695475621
0.00349293716436
0.197145572155
0.0685548599398
0.0409394714272
0.0286241805428
0.0218140713409
0.0175480541375
0.0146510710659
0.0125720776505
0.0110226346924
0.00984047250969
0.00893023725437
0.00823382185713
0.00771142655872
0.00732606340711
0.00703345555045
0.00678488029495
0.00654084609109
0.00628298952302
0.00600727041545
0.00572143089049
0.00543946127861
0.00518122875506
0.00498013553096
0.00490562357712
0.00523791369011
0.366171119364
5.42259898902
9.28109102704
9.80344542442
9.76862821343
10.1966664897
11.3375475833
13.1064968654
14.7800673279
14.964053064
11.8295110063
5.76708626964
1.00204224063
0.0413086442411
0.00497715644465
0.00382836447616
0.00334807036235
0.00313527916382
0.00321282158532
0.00362733730338
0.00445278711575
0.00651596531153
0.011403788555
0.0129091405638
0.0126431307019
0.199296556384
0.0701790458332
0.0420369597026
0.0294202681116
0.022419983175
0.018023402359
0.0150312339542
0.012880496634
0.0112775985391
0.010060493004
0.00914029613127
0.00847332586698
0.00803946698138
0.00781258848039
0.0077170485492
0.00764034073256
0.00749155209781
0.00725040792896
0.00693730853395
0.00659540647769
0.00626667544728
0.00599612498008
0.00586324291933
0.00606903272967
0.139930097233
8.25293506143
11.8900363538
6.90054960034
3.82384632164
3.0343380108
3.95641060097
6.29495588474
9.4244366525
12.8417780951
16.2364988931
17.5363109264
13.8398192417
6.40348772456
1.02061881598
0.0427005803627
0.00495536192576
0.0037637593207
0.00337313330496
0.00329653779412
0.0035992748989
0.00533361085943
0.0215767811241
0.0635841173035
0.0855007715954
0.0818703152584
0.201182812724
0.0716136928017
0.0430057761405
0.0301183359118
0.0229446655171
0.0184269290415
0.01534440739
0.013123648604
0.0114673719532
0.0102172971554
0.00930204277703
0.00872361955485
0.00865285661454
0.00928458338315
0.0140742237887
0.0203570917227
0.0177544072442
0.0132183415237
0.00900915459532
0.00820721480905
0.0076758714805
0.00732417676508
0.00725253284045
0.0111908596141
5.4021665537
15.6144131734
8.63237024433
3.02929424479
0.969821321698
0.959673467157
2.86257830621
6.21616732257
9.38912579255
11.7544842708
14.2932569361
17.6761151898
18.1818872876
12.2494053438
4.14151455831
0.362123120553
0.0139788041871
0.00440255931077
0.00378607077708
0.00365961303458
0.00453906558014
0.0202782889161
0.117722761987
0.218102454096
0.216967035725
0.173679130153
0.202860805243
0.072897850982
0.0438722068632
0.0307385162244
0.0234050046055
0.0187737065004
0.0156046242654
0.0133149478319
0.0116051834436
0.0103264747412
0.00944945176971
0.00920534314391
0.0115141256217
0.0349518472087
0.240662334061
0.682871331889
0.876582957048
0.643907144535
0.85608280833
0.0941420738584
0.0215725104452
0.0105657256234
0.00904957821226
0.330533047327
13.0118547927
17.8603723608
12.676955052
3.86436554063
0.705564006803
0.877706502996
3.75501252105
7.86016257976
10.5770651197
12.0271165316
13.4081594162
16.1132427453
18.9925507312
15.857421608
7.40363948281
1.10648965939
0.0451974970358
0.00550378837734
0.00435593342654
0.0045786046205
0.0168454044767
0.11963892381
0.275179677386
0.255374475086
0.156372129721
0.0943141595147
0.204373029518
0.0740620870088
0.044658124072
0.0312989750836
0.0238177263615
0.0190803242011
0.0158292146556
0.0134731157184
0.011711925651
0.0104147989244
0.00973040198982
0.01084258437
0.052972697495
0.57714369717
16.7305798156
35.2141924349
11.4663731353
7.32262545988
0.617430412543
0.115485274896
0.0294365140016
2.22258546616
16.6216199235
26.3560336185
18.9603272546
4.19177424053
0.430332877399
1.01360047023
5.13900134676
9.44756857928
11.542087106
12.7312826289
13.5830776685
15.2954894296
18.4503071459
17.1802092178
9.26506283989
1.76155697216
0.0781633339169
0.006780849514
0.00533735133135
0.0148176952483
0.112378431457
0.311064309994
0.338027049827
0.210551154187
0.0985394753939
0.0410729257109
0.205751892665
0.0751309468628
0.0453822223332
0.0318164024534
0.0241994120732
0.0193644674707
0.0160379636826
0.0136208926578
0.0118135984089
0.0105110709963
0.00999072495417
0.0289144168802
0.281559344563
22.2398830975
31.3959449808
10.5426053441
1.39455851655
0.189774579329
5.80285340801
23.69325266
36.7618715472
20.5521791144
2.87147166928
0.176344941369
1.37471896094
6.90018643601
11.0121715332
13.1697401757
14.6319073593
15.0765003327
15.6985262448
17.9479516165
16.8929522983
9.39306634326
1.744861693
0.0711706026506
0.00767439246511
0.0163494861618
0.14306473822
0.454874568307
0.549872349947
0.351235733514
0.167063489109
0.0739450017757
0.0317214465005
0.207022579593
0.0761241857876
0.0460602316603
0.0323054842458
0.0245652447299
0.0196428690858
0.0162500806755
0.0137806885591
0.0119348504288
0.0106302517067
0.0102580058202
0.017539356557
31.9732408033
34.5389171396
18.2923286373
5.25280095343
1.14705024334
15.3931788254
40.1290857413
41.5217759274
12.7200027718
0.894849530896
0.0587288498969
1.9292558499
8.8281594965
12.6561117356
15.1655922733
16.652766989
16.611330727
16.3710883738
17.3799581747
15.2887946994
7.87505467362
1.07326203516
0.0367529885219
0.0233590204459
0.271220667421
0.866021635419
0.946795130562
0.583671511364
0.298792657365
0.135285411082
0.0553021380678
0.0216473675138
0.208204181593
0.0770572034756
0.0467044627074
0.0327777300749
0.0249270669093
0.019928451959
0.0164801640636
0.0139690107208
0.0120919123835
0.0107686633853
0.010391879309
0.017369027771
40.1294589283
38.2582570135
10.0850259885
6.24546457356
16.9055879568
43.7998661003
53.5791186683
25.6432839432
2.82897595581
0.101853098524
0.03489455584
2.48466324368
10.5491615944
14.0162792004
16.5276885921
17.6685418934
17.0815798465
16.2864346153
15.9373827108
12.3490316104
4.99421943822
0.367224946846
0.0388621415111
0.598919158442
2.05940327365
2.35387502289
1.76026461207
1.05941464991
0.505116184378
0.199035757286
0.0671879713776
0.0210064045307
0.209310658068
0.0779410919533
0.0473232665804
0.0332403537739
0.0252916633885
0.0202279011197
0.0167349087476
0.0141923721578
0.0122903011069
0.010926488333
0.0103687783921
0.0160152987841
0.117988667404
35.0516633331
57.2073661396
36.9270685005
39.3539915792
53.2567191699
57.8142718476
27.9646832398
3.26950823454
0.161569855623
0.0115344077782
0.0261284484269
2.68716587977
11.6538621259
14.6063796845
16.604747738
17.1489488579
16.1396653909
14.9049240218
13.0515825582
8.3240011211
1.84138515851
0.0945574767267
0.96119098918
4.04071243977
5.58061033562
5.47013618059
4.50660905303
2.9203485415
1.34977325042
0.460892732275
0.128609968255
0.031527180532
0.210351722718
0.0787830087393
0.0479210507518
0.0336960456664
0.0256603325579
0.0205410901558
0.0170127413602
0.0144488583503
0.0125273294355
0.0111106542517
0.0102921444904
0.0112926086775
0.0572708980376
2.62483422136
39.7958004293
54.0114257144
57.4420214785
57.6894616369
51.9900093203
22.2047095669
2.45202345759
0.134165786765
0.0113399584355
0.00721141555057
0.0159872273219
2.23349021782
11.7947519056
14.2694538872
15.3288281518
15.169311236
13.8788375806
12.0716391748
9.03673597109
3.88182561943
0.348643663724
0.84541703033
4.72373532594
7.41212131995
7.81494711796
7.38893336487
6.50137514817
5.08960811047
3.01588116881
1.0997286242
0.275072420717
0.055754266637
0.211334213755
0.079586927816
0.0484989543528
0.0341437413444
0.0260299146005
0.0208631849744
0.0173055490955
0.0147226745449
0.012785365766
0.0113272810079
0.0103141501012
0.00994656955072
0.0135849274195
0.0622467560982
1.78723801931
9.48628558407
18.0265286432
23.2076839907
35.1659097748
48.1533169527
51.663211377
41.7444264995
13.0655330203
0.964082413009
0.0398704302543
0.00833531005112
0.00679480795955
0.00659151557288
0.00908090469659
1.23335546703
10.5738396108
13.2259702651
13.198319765
12.3401570196
10.7476821303
8.44068966955
4.80103171728
0.935478991833
0.474842860123
3.65882877593
7.25948745187
8.40004154392
8.6448356742
8.40693278502
7.64980665449
6.4281496251
4.61837146552
2.13845172285
0.53999684076
0.0959880061971
0.212262829621
0.0803547766724
0.0490561631975
0.0345805433239
0.0263951485567
0.0211841526748
0.0175999807244
0.0150012203205
0.0130507772941
0.0115648165792
0.0104536156212
0.00970646331623
0.00940868459629
0.0118003747548
0.0769824780006
0.268543227018
0.608952005178
0.942907961768
0.314786683342
0.280798070833
0.167337735092
0.0642335560431
0.0183850934536
0.00861962188816
0.00714061340703
0.00652235206664
0.00614682043088
0.00603136562247
0.00656601088677
0.348704434542
7.56498429639
11.8195866161
10.7564746686
9.42986419583
7.53769190878
4.8168797984
1.57647054509
0.342075542341
1.9987824801
5.80718462992
7.98169820755
9.00943048776
9.55863590371
9.40942805097
8.66058910425
7.45677770559
5.68553583288
3.16234176197
0.878143548174
0.143162952035
0.213140810554
0.0810872891861
0.0495908660591
0.0350016587367
0.0267488683861
0.0214965220338
0.0178867357961
0.0152716730159
0.0133080769207
0.0118020408483
0.010641756575
0.00976445043466
0.00913330419808
0.00870865998789
0.00843963977812
0.00836392640608
0.00850924972332
0.00861335003724
0.0083748376549
0.00778930201614
0.00733176443358
0.00709045476827
0.00686235740424
0.00654883889945
0.00619168385551
0.00586496543079
0.00562360724687
0.00552228021358
0.0056975803181
0.0385526796007
3.31392398458
9.83952505146
8.31301976691
6.50963609436
4.41007067817
2.01993151503
0.540052862998
0.827075951634
3.63493127819
6.76374833392
8.42908055373
9.5479089568
10.0488751293
9.75621158586
9.04488601096
8.09753216913
6.3716985092
3.78163194229
1.12668089361
0.170026897146
0.21397092728
0.0817846106299
0.0501012332704
0.0354042983273
0.0270869386695
0.021794148918
0.0181581572182
0.0155250946549
0.0135467159658
0.0120230591011
0.0108330323073
0.00989960547545
0.00916894306522
0.00859619816941
0.00813953894598
0.00776338173217
0.00744294924891
0.00716242586201
0.00691444843165
0.00669588160445
0.0065027887619
0.00631842795229
0.00611863910001
0.00589100433821
0.00564639621391
0.00541105341358
0.00521542423342
0.0050973520248
0.00513020710028
0.00613917787372
0.456656025625
5.76405972497
7.52223426553
4.44719011144
2.47458361223
1.0549492323
0.473270540315
1.49313633307
4.54042210325
7.21312251401
8.66977176764
9.57811800199
9.82210715331
9.34836156383
8.74123751769
8.21657427223
6.62547806501
3.86620905957
1.10883489389
0.14853593604
0.214755576619
0.0824473952328
0.050586529113
0.0357864587188
0.0274064486063
0.0220734166306
0.0184101595414
0.0157571748893
0.0137620494297
0.0122208356992
0.0110079583025
0.0100415439212
0.00926438517442
0.00863312716615
0.00811298130683
0.00767631032226
0.00730268201368
0.00697713107061
0.0066896383952
0.00643213875749
0.00619690525355
0.00597415460721
0.00575426080697
0.00553234057832
0.00531121111171
0.00510039859148
0.00491406583341
0.00477255600479
0.00471251397552
0.00482002830141
0.0127187269559
1.09136736083
5.37952273229
5.50210335989
2.63936464637
1.0260738221
0.584202154354
1.61202937548
4.49345083654
7.04253678558
8.38063505153
8.96044595916
8.91179558334
8.38203542334
8.13233777252
8.02574210236
6.32131537573
3.32031402326
0.784493357937
0.085746136365
0.215497218927
0.0830765869678
0.0510467343222
0.0361474808513
0.0277063667051
0.0223331694227
0.0186417400138
0.0159673480888
0.0139540022787
0.012394886006
0.0111618660006
0.0101709285227
0.00936384874747
0.00869805168391
0.00814110322571
0.00766799005014
0.00725978173339
0.00690176867245
0.00658308923052
0.0062949530432
0.00603008153809
0.00578196013281
0.00554545938948
0.00531779814625
0.00509918328067
0.00489272879683
0.00470425960704
0.00454331138139
0.00442707486397
0.00439031389204
0.00453022777998
0.0273314322833
1.20019526028
4.30233136389
4.95343808406
3.11446634103
1.26824035427
1.23550617035
3.30408876054
5.802387794
7.22871319534
7.68349102286
7.54497027481
7.37697207735
7.84467114338
7.58003452349
5.21817023894
2.10613287493
0.336178716787
0.0279639142217
0.21619843355
0.0836735941842
0.0514826392016
0.0364878721514
0.027987152354
0.0225740605688
0.0188539991499
0.0161573823495
0.0141251098342
0.0125481252206
0.0112965782112
0.0102852706615
0.00945548878815
0.00876495943095
0.00818216875419
0.00768316290976
0.0072497177837
0.00686752505346
0.00652580783725
0.00621608186958
0.00593177178062
0.00566773625735
0.00542022308075
0.00518683933863
0.00496650564899
0.00475940179281
0.00456709475346
0.00439326160116
0.00424560434095
0.00413959469608
0.00410482191864
0.00426519981419
0.0308280827031
0.776619372871
3.0852833549
4.66721212802
4.46607555556
3.32223596055
2.90039236027
4.02815665842
5.42397039319
6.22562083992
6.75713760737
7.52073858733
7.74693641647
6.05534524597
3.03925615991
0.67914923857
0.0604853308484
0.005924060253
0.21686190826
0.0842402127816
0.0518956088856
0.0368089130315
0.028250214145
0.0227978202511
0.0190491680069
0.0163301828898
0.0142789852798
0.0126846528934
0.0114160515189
0.0103871794027
0.0095389827942
0.00882927356448
0.00822694091153
0.00770854013105
0.00725625838097
0.00685618170079
0.00649782608285
0.00617311278001
0.00587594983614
0.00560177516292
0.00534722939465
0.00510982531966
0.00488768602603
0.00467944240667
0.00448440919795
0.0043032116862
0.00413905339668
0.00399961864649
0.00389918655588
0.00386121364246
0.00398133572759
0.0139435477565
0.269908444374
1.56513331731
3.43181569891
4.71502980239
5.26203339701
5.58469650332
6.12035344026
6.79812513618
7.28708827042
7.02451270355
5.34693663215
2.65541484561
0.583140548751
0.0470478184252
0.00504891043347
0.00332020117019
0.21749030045
0.0847785087064
0.0522873947091
0.0371123427453
0.0284974646016
0.0230066694852
0.0192299082163
0.0164889244941
0.0144193154118
0.012808542261
0.0115244142558
0.0104802907735
0.00961682075984
0.00889179205158
0.00827426769665
0.00774106826025
0.00727463548891
0.00686135871584
0.00649101135653
0.00615581184537
0.00584995323014
0.0055691154221
0.00531001497523
0.00506997453744
0.00484658925052
0.00463759976854
0.00444108485124
0.00425608073375
0.00408365239087
0.00392818249575
0.0037982999921
0.00370719390412
0.00367204318294
0.00371961896293
0.00486238772152
0.0336029908769
0.286753325858
1.10980280128
2.31339938513
3.39545724094
4.09776062361
4.27761314144
3.73178956776
2.32642495409
0.724585600339
0.0754064615486
0.00658316811894
0.00348998740099
0.00321637693223
0.00305565210329
0.218086192236
0.0852907168845
0.0526600423851
0.0374002148901
0.0287310851917
0.0232030094696
0.0193989072551
0.0166366265885
0.0145494415933
0.0129233589907
0.0116252661946
0.010567956904
0.00969177973526
0.00895442691672
0.00832500673308
0.00778046532439
0.00730338997146
0.00688036505951
0.00650132853816
0.00615867003508
0.00584672910883
0.00556127658085
0.00529900637799
0.00505706755642
0.00483270735716
0.00462313540357
0.00442573044844
0.00423868777352
0.00406205122952
0.00389874980673
0.00375507938841
0.00364032244194
0.00356504091759
0.00353798166384
0.00356508343241
0.00366228122089
0.00420653195798
0.00869985549157
0.0288679122573
0.0717150121349
0.104108024907
0.0779843990738
0.0256062819988
0.00615935333623
0.00369391797913
0.00333102886503
0.00316381287966
0.00305250664364
0.00297071392708
0.00289674128647
0.218652087083
0.0857796931113
0.0530163431842
0.0376752099834
0.028953700897
0.0233895132345
0.0195589619696
0.0167762372914
0.0146724580744
0.0130322900812
0.011721767303
0.0106531477457
0.0097664640145
0.00901925163518
0.00838057076606
0.00782739189075
0.00734236492444
0.00691217044888
0.00652681343247
0.00617874016787
0.00586234398359
0.0055734147251
0.00530860294886
0.00506493318822
0.00483943349529
0.00462899667233
0.00443059433548
0.00424195950491
0.00406268091224
0.00389509232395
0.00374446850406
0.00361837533973
0.00352509890865
0.00347083132437
0.00345785973373
0.00348277885639
0.00353576064793
0.00360050625662
0.00365602432094
0.00367929044868
0.00364669489089
0.00354670715677
0.00339648060866
0.00323155787624
0.00308678456635
0.00297954865627
0.00292065004364
0.00296193061568
0.00321224282515
0.00366108074076
0.190186184619
0.0930483881631
0.0561295180045
0.0393958202995
0.0300514905857
0.024156710232
0.0201295095554
0.0172198675877
0.0150289937357
0.0133261007564
0.0119685868774
0.0108636026266
0.00994801989689
0.00917734973847
0.00851930500297
0.0079499255513
0.00745122108451
0.00700943110701
0.00661429277522
0.00625832968581
0.00593782832928
0.00565475154764
0.0054177748891
0.00523823937165
0.0051187631546
0.00503880947091
0.00494939125335
0.00479057417708
0.00452658607252
0.00418472174887
0.00387083273505
0.00366768622169
0.00353918474495
0.00346195802436
0.00342682438487
0.00342694785112
0.00345167698365
0.00348397178866
0.00350244066935
0.00348817778017
0.00343682114065
0.0033387771239
0.00321433703521
0.00375404342348
0.0116157084763
0.0502190097611
0.152172477542
0.323453901053
0.52834177872
0.70789517717
0.114811394217
0.345484260949
0.621166983347
0.0296011554659
0.0700275586154
0.0818185701391
0.302283938182
0.638606216735
1.51383949355
1.29370915085
0.471805985413
0.409202993564
1.13131757726
1.75916808228
1.33420772564
2.97962365879
2.33863273348
1.20634624609
0.982192769791
1.8029717603
33.4370021816
1.80760350754
2.04194779684
2.57894378621
0.902621519289
1.22301608696
22.4236973882
7.50031675132
0.146576289524
0.210503438549
0.596590893478
0.0421350749602
0.12582998938
0.0792062872641
1.05085249843
1.34257086689
1.06576843845
2.90839672109
20.5550535522
12.0602501169
12.6155018627
33.0357253651
10.0236849984
23.2621890219
11.9471762699
16.5820994559
9.14202637218
7.53015071359
0.052287691146
0.0204894065552
0.129143044891
0.0243352697501
0.0527427875797
0.0168751793905
0.0655885224912
0.204724942079
0.190134290156
0.238556987772
14.724003084
12.676452241
8.17973830535
8.56499547107
28.207658616
29.2820298551
31.6872389221
27.0676519443
25.9156881596
25.0165935076
34.7800553035
0.0468200833717
0.0192867483549
0.0918750368259
0.0174281326607
0.0537679297788
0.0175904694923
0.0548631452392
41.0093551579
39.1439986917
37.1795599379
31.3446577617
36.5315114968
37.8874707521
44.3107799528
0.0397322630337
0.0186205838067
0.0832194792304
0.0172736696743
0.0394715333357
0.0171156251992
0.0474240602786
51.0654923076
37.4492209671
48.2339755437
40.6080406216
47.3366745817
30.3973094777
51.1627020261
0.0416056772806
0.0126082605087
0.0702633551369
0.0165083348363
0.0363243946031
0.0342311787621
0.0499449417777
0.120683805314
0.160258530984
0.178644833356
18.9116608969
31.3167953913
14.9314821041
18.2113285307
48.250172768
34.5477103213
47.3965379298
23.0823458764
50.8582451625
42.3482909679
39.2087051401
0.264013323692
0.0161506928005
0.179285143656
0.116999315776
0.476799667876
0.0880678420261
0.147435564693
0.59092193567
1.28140704357
0.430643520493
1.60139354952
8.33210910149
6.07183049717
8.73539026929
14.2312585431
17.3825935488
13.0573506283
23.8289995262
2.09311444354
9.2977236449
8.91069632334
21.542265699
0.739812838404
0.0145892560942
0.305394864455
0.214449095173
0.735438701245
0.0711748965342
0.0968078590722
4.91764235239
0.224489459306
0.401838201217
0.760980059039
1.82258792133
0.601108008281
0.321666491627
7.29673751276
0.752803083546
1.0195609597
1.40962408572
12.7192564263
1.17469511647
0.879315453464
16.9094440737
1.4154027171
4.68257325556
3.88081673931
15.5919217511
1.83123070363
1.56901599137
0.0392955763887
0.017654287763
0.0136595902716
0.0141858629436
0.0238470668826
0.0414067842455
0.0388991398342
0.0259952474669
0.0185391204873
0.0151770799369
0.0135506295428
0.0128095424781
0.0125067646928
0.0124745393922
0.0128582691353
0.0137597540009
0.0148003937238
0.0153735029763
0.0154541067745
0.0156951754551
0.0167274597037
0.018637682672
0.0210356431304
0.0237457949559
0.0270961910538
0.0308711156902
0.0330993599466
0.030569422968
0.0227943639489
0.0138779238513
0.00797304075543
0.00510683972723
0.00383437720325
0.00340207536244
0.00338454876406
0.00357390595276
0.00388769546164
0.00429211299159
0.0046645647319
0.00462924930015
0.00454063189598
0.00494451299485
0.00560340176724
0.00643759057126
0.00744849332133
0.00864617749957
0.0100294874194
0.0115780812382
0.0132516616073
0.126432311176
0.0784045506928
0.0315046428361
0.0190002577134
0.0136112519659
0.0107111832022
0.00892668343624
0.00773242945786
0.00689592749155
0.00628417785742
0.00581179956632
0.00543444733422
0.00512740831595
0.00487277351553
0.00465918556407
0.00447946658089
0.00432403702317
0.00418442251843
0.00405754579886
0.00394380912813
0.00384252370226
0.00375025099253
0.00366499211561
0.00358895197772
0.00352873391223
0.00349132738459
0.00348067116636
0.00349948754421
0.00355332125676
0.00366327102784
0.0039247300613
0.00480383165958
0.00817010667739
0.0187234781689
0.0267907972768
0.0129348564245
0.00557167524135
0.00344963484004
0.002924110392
0.00277203310352
0.00269829555135
0.00264711804983
0.00260790305025
0.00257816288718
0.00255609016223
0.00253922124044
0.00252492044138
0.00251125376965
0.0024973579474
0.00248328751887
0.00246948116474
0.0950737189461
0.0404093281232
0.0245369137046
0.0174078265966
0.0134627734792
0.0109932977334
0.00931640772002
0.00811111426933
0.00720775333596
0.00650801074846
0.00595197279356
0.00550179847561
0.00513178020329
0.00482348412167
0.00456294798125
0.00433899307102
0.00414299691752
0.0039690016079
0.00381276385129
0.00367107704763
0.00354197291638
0.00342565661015
0.00332473188483
0.00324272479837
0.00318245361331
0.00314474581486
0.00312750111641
0.00312596602231
0.00313422424423
0.00314699548018
0.00316169231099
0.00318384784253
0.00324874954704
0.00358228918934
0.00529071896049
0.0114091718782
0.0209827926553
0.0117379313833
0.00498038849403
0.00327397460057
0.00282518137459
0.00269258817437
0.00263985133553
0.00260958614445
0.0025885305467
0.00256934872409
0.00254952582759
0.00252887324889
0.00250837066628
0.00248909560419
0.104422935197
0.0458361685007
0.028097426923
0.0199734017926
0.0154238614984
0.0125535446725
0.0105935739017
0.00917810810409
0.00811260697483
0.00728454579936
0.00662456260785
0.00608778795084
0.0056442038089
0.00527269618074
0.00495740239345
0.00468583556648
0.00444826406872
0.00423727171258
0.00404714660282
0.00387407853997
0.00371639319924
0.00357491291045
0.0034527603008
0.00335464367929
0.00328432022366
0.00324364502684
0.00323095614107
0.00324053128588
0.00326342561638
0.00328910849902
0.00330737665473
0.00331064644871
0.00329639079251
0.00327044587637
0.00326427804599
0.00344576841354
0.0045781386397
0.00869036661506
0.0167598648686
0.0126258819365
0.00540239073794
0.00358255394867
0.00298831344426
0.00278696036746
0.00271347565144
0.00266663765861
0.00262782764288
0.00259101282849
0.00255668086617
0.00252644984817
0.110787693913
0.0496905016629
0.030683194661
0.0218689303306
0.016895854498
0.0137430094119
0.0115834640669