/*--------------------------------*- C++ -*----------------------------------*\
| =========                 |                                                 |
| \\      /  F ield         | OpenFOAM: The Open Source CFD Toolbox           |
|  \\    /   O peration     | Version:  2506                                  |
|   \\  /    A nd           | Website:  www.openfoam.com                      |
|    \\/     M anipulation  |                                                 |
\*---------------------------------------------------------------------------*/
FoamFile
{
    version     2.0;
    format      ascii;
    arch        "LSB;label=32;scalar=64";
    class       volScalarField;
    location    "3";
    object      nut;
}
// * * * * * * * * * * * * * * * * * * * * * * * * * * * * * * * * * * * * * //

dimensions      [0 2 -1 0 0 0 0];

internalField   nonuniform List<scalar> 
104960
(
0.000588045648961
0.000469930832293
0.000729017890911
0.00176961290482
0.00482499671772
0.00994932121307
0.0112462786058
0.00845490409603
0.00572383266887
0.00433888304398
0.0035341873722
0.00314353691418
0.00299665408532
0.00297623425793
0.00309693071048
0.00340782318473
0.00382184755584
0.00410085481644
0.00408506614867
0.0039268310765
0.00384657032032
0.0038975146612
0.00396434746687
0.00390752154432
0.00370066235123
0.00335160153127
0.00285855886946
0.00226839506607
0.00168190688136
0.00119830074816
0.000881701486009
0.000755048438734
0.000778205770878
0.000909367500794
0.00112252408049
0.00140519254025
0.00174366422458
0.00212242507936
0.00253645442171
0.00298455056392
0.00345287545913
0.00391014927025
0.0043895551139
0.00487862117408
0.00536794555072
0.00585959662888
0.00635568230874
0.00685282030887
0.00734240345134
0.00781389182243
0.000661996969377
0.000496783325917
0.000461766362034
0.000446443496141
0.000439148198485
0.000435990629139
0.000435127651548
0.000436220233198
0.000439026766867
0.000442887240207
0.000447187849993
0.000451789426971
0.000456466879689
0.000461176981539
0.000465954769331
0.000470661531407
0.000475023379751
0.000478949137582
0.000482534972425
0.000485912048396
0.000489022171596
0.000491772451601
0.000494338848923
0.000497285702789
0.000501422709177
0.000507419851311
0.000515772558973
0.000527014074013
0.000542326680624
0.000565306337105
0.000608901512077
0.000727031976797
0.00111346230499
0.00203963011244
0.00222767994173
0.00119327778579
0.00078176984127
0.000697209119813
0.000674249165657
0.000659826368454
0.000649483657785
0.000641238567635
0.0006346168484
0.000629332191806
0.000625063384632
0.000621430572007
0.000618122196058
0.000614975554928
0.000611968178532
0.000609152794594
0.000687461425489
0.000538490930049
0.00049946152045
0.000479069216873
0.00046656172741
0.000458230190946
0.000452434149373
0.000448392938015
0.000445678630353
0.00044400047837
0.000443146606989
0.000442994971812
0.0004434525966
0.000444421275054
0.000445780205468
0.000447371786167
0.000449016667988
0.000450568498966
0.000451922630939
0.000452998146138
0.000453753980197
0.000454273405579
0.000454837155368
0.000455878218996
0.000457885921561
0.000461259703223
0.000466182387082
0.000472584190872
0.000480232200487
0.000488896412976
0.000498524545184
0.000509591906363
0.000524202048239
0.000551904345621
0.000635575899673
0.000924792878642
0.00164703996591
0.00186758907083
0.00101163938257
0.000736358071204
0.000674783223437
0.000654154262913
0.000644801199291
0.000638814029538
0.000634210031826
0.000630042368141
0.000625806924117
0.000621499201675
0.000617297468827
0.000613410881337
0.000701558513217
0.000560706615677
0.000520767689285
0.000499031464081
0.000485092558922
0.000475334606683
0.000468139328995
0.000462681384727
0.000458502598035
0.000455322683762
0.000452961412767
0.000451300964127
0.00045026814311
0.000449806054318
0.000449832324217
0.000450219226933
0.00045080303319
0.00045141062237
0.000451870597198
0.000452045305457
0.000451880861794
0.000451481255993
0.000451157133094
0.00045140888376
0.000452810517867
0.000455869264855
0.000460855696496
0.000467696223059
0.00047599438532
0.000485152629569
0.000494527214445
0.000503607900881
0.000512247033472
0.000520882726431
0.000531474739593
0.000552523401275
0.000619675624722
0.000841022342284
0.00139992824109
0.00174961190818
0.00106207110146
0.000773079774109
0.000697424890034
0.00066628817983
0.000654752421291
0.000647577703073
0.000640724773888
0.000633938444799
0.000627349750444
0.000621411134417
0.000710885605723
0.000575195542906
0.000534951416556
0.000512616354201
0.000498026261861
0.000487615177757
0.000479780934505
0.000473696496883
0.00046890040148
0.000465118756673
0.000462179884758
0.000459968715067
0.00045840023316
0.000457408372135
0.000456921123137
0.000456826649694
0.000456964947266
0.000457144962514
0.00045716026144
0.000456834947477
0.00045608254264
0.000454990343485
0.000453892656317
0.000453386670328
0.00045425430792
0.000457230911986
0.000462802321252
0.000471000306704
0.000481389665024
0.000493221606121
0.000505588003836
0.000517467546215
0.000527782822466
0.000535681052687
0.000541238000683
0.000545511628999
0.000551543799065
0.000574060098175
0.000656843280447
0.000892275046394
0.00136727544204
0.00148656991082
0.000969976216156
0.000787717783482
0.000728717253182
0.00069091105756
0.000671831912546
0.00065760874974
0.000645513353421
0.000635641801541
0.000717671197222
0.000585677950129
0.000545320923802
0.00052264605739
0.000507676221515
0.000496882884463
0.000488676263029
0.000482236139044
0.000477108522902
0.000473034376815
0.000469862636384
0.000467497112568
0.000465857968757
0.000464857771729
0.000464393054583
0.000464327556871
0.000464479093981
0.000464634817261
0.000464557332422
0.000464039230268
0.000462960514419
0.000461384516695
0.000459669078078
0.000458539814381
0.000459110847189
0.000462548473765
0.000469711470325
0.000480746721901
0.000494953665116
0.000512608018593
0.000534493897925
0.000550254053134
0.000560591653222
0.000570567320094
0.000575615045501
0.000575369489343
0.000571270751672
0.000565975106469
0.000568586769133
0.00060426719459
0.000714800081273
0.000960619839125
0.00128314044565
0.00117099346338
0.0008762746471
0.000799172189541
0.000748135382226
0.000704639670132
0.000679043746444
0.00066116544774
0.000722908162613
0.000593752784618
0.000553357525983
0.000530456449382
0.000515225651069
0.000504167263998
0.000495702468
0.00048902060357
0.000483682911803
0.000479457082688
0.000476232539934
0.000473961214596
0.000472599193041
0.000472052672364
0.000472154144822
0.000472675154799
0.000473353539394
0.000473933778426
0.000474154253779
0.000473803885928
0.000472766727214
0.000471120544465
0.000469299164127
0.000468278527002
0.000469796841837
0.000476247069364
0.000489493500096
0.000729305027025
0.00499099518849
0.0236102865756
0.0562790000218
0.077762128184
0.0596308449379
0.0161622704047
0.00126894594169
0.000640363450153
0.000620726077663
0.000602047093414
0.000583338746473
0.000572027464519
0.000585002576664
0.000644380316353
0.000773290997294
0.000975010315305
0.00107674331517
0.000912976072514
0.000810808997902
0.000761529197907
0.000717109446257
0.000695465028459
0.000727116440315
0.000600238837706
0.000559835159423
0.000536762732678
0.000521327605947
0.000510058290832
0.000501386252721
0.000494512701186
0.000489022051694
0.000484726821173
0.000481592462356
0.000479675530404
0.000479032752991
0.000479597783278
0.000481091018433
0.000483057264134
0.000485016637839
0.000486619666369
0.000487607164127
0.000487857462061
0.00048738983578
0.000486463287988
0.00048584621766
0.000487310406683
0.000494472040551
0.000520221073666
0.00724778570331
0.100805698709
0.28029063808
0.431133646193
0.541984265323
0.620432549727
0.656280195659
0.615751954989
0.446831809658
0.165462413511
0.0124519909458
0.000803992389646
0.000630623086527
0.000597569431422
0.000576847909394
0.00057936859632
0.000617154212899
0.0006988974505
0.000823367412077
0.000915813086955
0.0008624247585
0.000826839023607
0.000770965990737
0.000746197032272
0.000730599590077
0.000605607160491
0.000565204485799
0.000541987256357
0.000526374391134
0.000514917859264
0.000506059242339
0.000499014533392
0.000493402345687
0.000489110866967
0.000486253142209
0.000485123933337
0.000486056567697
0.000489109022968
0.0004937319584
0.000498839696625
0.000503351531427
0.000506724456292
0.000508832681282
0.000509935089038
0.000510537750696
0.000511521199617
0.000514798270942
0.000525035053437
0.000552511379612
0.022307801369
0.29223900084
0.494123904268
0.553308193582
0.587503351862
0.642620840987
0.730826220341
0.84488772856
0.945268129911
0.959414929057
0.786496949429
0.413034451742
0.0765324195741
0.00342306707754
0.000660781773049
0.000606751367914
0.000584101622049
0.000587339162638
0.000623970796571
0.00069967685543
0.000816890672432
0.00113767749424
0.00201912661549
0.00235109059886
0.00236403260809
0.000733549441808
0.000610152832454
0.000569750875981
0.000546400928442
0.00053062186303
0.000518987342202
0.000509949797184
0.000502744826231
0.000497043458971
0.000492868075696
0.00049064182554
0.00049127347739
0.000496021013294
0.000505537328934
0.000518308373971
0.000530855910695
0.000540164100059
0.000545442694051
0.000547499470918
0.000548083701902
0.000549100254306
0.000552859776193
0.000564026611669
0.000592035198092
0.00830373060189
0.378836263508
0.519048280817
0.335448417516
0.212602431201
0.188514339634
0.263514235108
0.417960937626
0.613449777084
0.823785464007
1.023856898
1.09796574618
0.895886172655
0.442119902659
0.0740291702113
0.00336257415785
0.000659795204151
0.000616035442292
0.000602815288611
0.000622416323994
0.000685771331194
0.00094083862407
0.00351530174447
0.0106675415538
0.0147373810127
0.0144069325521
0.000736094936901
0.000614073746943
0.000573668569141
0.000550191626888
0.000534252051777
0.000522444708372
0.000513235343024
0.000505888146193
0.000500159335931
0.00049632363872
0.000495516742939
0.000500529379092
0.000517637345442
0.000539084795917
0.000433615448792
0.000469042863231
0.000466709449392
0.000445295652352
0.000519458833592
0.000569535200675
0.000594915127838
0.000608406436103
0.000624600098442
0.000790387835121
0.243901901334
0.596332110016
0.329681884713
0.125398159984
0.0443409786396
0.0581861889533
0.18800348254
0.396827319228
0.597423951752
0.75757003041
0.923351020322
1.11669443149
1.13788087437
0.799620874483
0.281758231966
0.0258403137647
0.00121304732103
0.000659311019742
0.000641581593856
0.000659552692967
0.000804448890822
0.00313814045103
0.0178582191417
0.0344197950075
0.0353808493285
0.0289814329465
0.000738327309589
0.000617510636555
0.000577098749076
0.00055349991728
0.000537406386764
0.000525434963822
0.000516069565427
0.000508618177935
0.000502978100902
0.000499906388371
0.000502264806685
0.000518881536038
0.000547314506219
0.000742826736864
0.00241205216257
0.00573062700079
0.00724415763894
0.0057417966187
0.00984051993369
0.00157745117908
0.000577978677245
0.000499027029659
0.000557402128029
0.0164951853964
0.518685834615
0.646068234662
0.465743944952
0.153214431965
0.0306719851595
0.0572604172772
0.246076894668
0.506388074172
0.708786718014
0.842415257213
0.945140071628
1.08703736843
1.20876185652
1.0117107846
0.488551386886
0.0753259508364
0.00335271232647
0.000713654460227
0.000699659752139
0.000771680382593
0.00255241005158
0.0174942912804
0.0412328290145
0.0398807524933
0.0253932088172
0.0156922155146
0.000740313542403
0.000620568343606
0.000580149760062
0.000556437710234
0.000540202069036
0.000528083282747
0.000518589762538
0.000511092458702
0.000505704808077
0.000504030926856
0.000512024825543
0.000563985502403
0.00111231695724
0.00562471218043
0.107455394964
0.17794419436
0.0724721481713
0.07015344886
0.00944585210699
0.00252676645069
0.000951113117891
0.102909856768
0.663069358181
0.896028719116
0.651110418072
0.160746401647
0.0181775668167
0.0694278116413
0.333497820561
0.628390679989
0.834795154969
0.972851723658
1.04995524124
1.12633227718
1.23061804387
1.10059776162
0.602638435416
0.116163585355
0.00552681833354
0.000793294556579
0.000809711665857
0.00217447802598
0.0161343435207
0.0450934006292
0.0498170823132
0.0313989969845
0.0148457111701
0.00629080191994
0.000742103662844
0.000623327171652
0.000582907224092
0.000559096451356
0.00054273775371
0.000530496424469
0.00052090977048
0.00051342413125
0.000508422462003
0.000508696911402
0.000524820825428
0.00095626508368
0.0043780237982
0.514739103415
0.504946044177
0.164042666305
0.0247120883258
0.00491037006697
0.262501901416
0.892132427557
1.1594029861
0.669117752224
0.105316385557
0.00747359292891
0.0931875796507
0.438356356498
0.75237499327
0.986410127578
1.14063819053
1.19520363344
1.21120555242
1.24829394639
1.10079077019
0.606476221516
0.112932523739
0.00496723883655
0.00090143887117
0.00220653115802
0.0189676673683
0.0586334002521
0.069331260408
0.0446987017771
0.0219109205002
0.0100289654528
0.00446284405505
0.000743735826335
0.000625849289989
0.000585438942708
0.000561549967254
0.000545093693349
0.000532759280502
0.000523110644642
0.000515658839384
0.000511014679873
0.000513034406148
0.000536051725336
0.000750424900251
0.397587732451
1.17202090435
0.463979575922
0.106592068805
0.0345780113636
0.635850132772
1.29303742825
1.203022016
0.406286494691
0.0311790044598
0.00300139550652
0.125471527868
0.542928968451
0.868116186306
1.1283690934
1.28314883631
1.3110818171
1.27491309888
1.23364713673
1.01508060272
0.503855250595
0.0691666633327
0.00266525416444
0.00269297356436
0.0302388131298
0.0919277625756
0.0998345278181
0.0637393478552
0.0338476524734
0.0159964368844
0.00685233881344
0.00283948552528
0.000745238636736
0.000628182114109
0.000587796565307
0.000563854131476
0.000547329392206
0.000534931502701
0.000525240101396
0.000517790874698
0.000513253132744
0.000515687548035
0.000538914651098
0.000748131183849
0.531722933424
1.35465762464
0.303623306778
0.141636543106
0.625933349568
1.36503592579
1.44079599185
0.698675436932
0.0874181338385
0.00342287659799
0.00239597246515
0.154952565413
0.624098275605
0.945904576545
1.20607932053
1.3426601925
1.33887244589
1.25930962789
1.13922220593
0.83100111143
0.316699284613
0.0239870176892
0.00356657936099
0.0547260251124
0.174586786595
0.19869529339
0.153869563554
0.0980223511366
0.0500284219082
0.0209860016013
0.00752076870365
0.00253408834754
0.000746632981754
0.000630359901169
0.000590016095388
0.000566046056694
0.000549482054631
0.000537047504857
0.000527322436161
0.000519815048519
0.000515047877553
0.00051623199859
0.000532075779265
0.000705338764965
0.00276145876385
0.766025298779
1.89003898299
1.0944037757
1.18251837992
1.51888260698
1.403689864
0.646088340445
0.0877393021226
0.00476784948734
0.000564156417256
0.00193821723739
0.16337927486
0.66180843632
0.956931404876
1.18760228009
1.2897972396
1.25334983554
1.13652196876
0.937229752649
0.557716917115
0.119178623211
0.00691450307613
0.0786039299903
0.298742759897
0.40819857214
0.411103340658
0.350628051667
0.238289892969
0.119045996957
0.0441919345778
0.0132162442066
0.0034929977782
0.000747933581772
0.000632405776307
0.000592119535784
0.000568145472603
0.00055156822993
0.000539120263804
0.000529372464357
0.000521773618584
0.000516537894549
0.000515585398581
0.00052677212687
0.000574672924485
0.00136660379147
0.0060332098324
1.24231923392
1.89381860733
1.74309655726
1.56502949502
1.16838557368
0.449484497709
0.0571348721872
0.00355028439557
0.000517076376056
0.000638078952338
0.00126666361733
0.136187414671
0.645502943933
0.894541629935
1.07059925194
1.1271396192
1.06140932956
0.907422806623
0.642721045332
0.258250816231
0.0239644461338
0.069766588307
0.349894326959
0.555695350536
0.630107455982
0.625719150796
0.552966189994
0.422675244826
0.250649574279
0.0978108489197
0.0264560750209
0.00576702454257
0.00074915100882
0.000634334254077
0.00059411787312
0.000570158388551
0.000553588798597
0.000541152232131
0.000531386280893
0.000523659925902
0.000517943419821
0.000515112775408
0.000518332209592
0.000538251265211
0.000614127103741
0.00110584262851
0.00704234093112
0.0329143696758
0.0830881218049
0.319052914854
0.640091779467
0.800204247486
0.943593095015
0.736002141768
0.245854172788
0.0208811356137
0.00110888318539
0.000513945678374
0.000608744114007
0.000633669467754
0.000816595329329
0.0782481953405
0.569958894226
0.778815288634
0.881593448242
0.889197663595
0.795634565913
0.610379741336
0.329039292316
0.0650242086055
0.0412441962744
0.290934229804
0.576415537675
0.734130106503
0.806436343488
0.79853075366
0.718788770672
0.580199774356
0.392364858481
0.181718752033
0.0493891467339
0.0094362323655
0.000750292804467
0.000636154369856
0.000596015714251
0.000572084933944
0.000555536135351
0.000543110452911
0.000533337387159
0.000525520267764
0.000519437182539
0.000515354313064
0.000514331449535
0.000518986344721
0.000534812801121
0.000557786151617
0.00115830497496
0.00299395602485
0.006342818538
0.00997562279791
0.00517293959205
0.00531993697531
0.0037365395081
0.00169570628764
0.000634273055319
0.000506881840905
0.000581748973431
0.000586964145869
0.000585711710716
0.000600241538744
0.000659072410755
0.0238751922614
0.423865563056
0.653661045268
0.664444136065
0.628649112954
0.513586900712
0.323878583541
0.108707098554
0.0276751831998
0.172679078017
0.482555556159
0.718318045436
0.870555927258
0.939896898673
0.925584736426
0.840932975123
0.700759483453
0.503949444362
0.266295179117
0.077583462263
0.013580539185
0.000751364428356
0.00063787181113
0.000597813036927
0.000573913203241
0.000557389706061
0.000544985865561
0.000535216600372
0.000527341440148
0.000521022804208
0.000516224287844
0.00051321680985
0.000512604891824
0.00051518129998
0.000521284213683
0.000528713749093
0.000520535451967
0.000484703629959
0.000455109340359
0.000447822632541
0.000467984442624
0.000512015262464
0.000549919248291
0.0005625136421
0.000560391763162
0.000555178297607
0.000552417871103
0.000555501824961
0.000568591097058
0.00060224200879
0.0030084638399
0.209058347508
0.545504472348
0.483109990166
0.401582155628
0.281247822957
0.134095322504
0.0387464576691
0.0721727501268
0.309057659471
0.595725328038
0.809585897573
0.949786679935
1.00442229111
0.975962086805
0.890167967552
0.764608976551
0.572726689853
0.320441782305
0.0977060510412
0.0157821340197
0.000752370594481
0.000639490086085
0.000599509322106
0.000575641895468
0.000559143996408
0.000546762413009
0.000537001737254
0.000529093314135
0.000522635217736
0.000517450979895
0.000513525753141
0.000510948888168
0.000509803906392
0.000509997857508
0.000511170007453
0.000512858720523
0.00051470856271
0.000516509898065
0.000518274598399
0.000520125264524
0.000522229909195
0.000524300579267
0.000525686236035
0.0005260995715
0.000526182675591
0.000527346168689
0.000531471621123
0.00054135313145
0.000562813748648
0.000655523913719
0.0344810084708
0.360837480516
0.449224480436
0.277024363048
0.160404270933
0.0712824157637
0.0354438845878
0.123419592446
0.377289034589
0.641286802112
0.835366644034
0.953598111707
0.987198867136
0.944172838405
0.864058932485
0.76583308548
0.588987246374
0.32810456627
0.0957509490128
0.013687743222
0.000753315388745
0.000641013866399
0.00060110689102
0.000577268998401
0.000560793150617
0.000548430111227
0.000538677585512
0.00053074933449
0.000524208282625
0.000518812902836
0.000514439936134
0.0005110289517
0.000508525054312
0.000506826124347
0.000505767147866
0.00050516312362
0.000504871324508
0.000504805923728
0.000504948637862
0.000505307918637
0.000505894238029
0.00050659649272
0.000507252395302
0.000507828480055
0.000508585429937
0.000510117935365
0.000513368737441
0.000519863752726
0.000532564928014
0.000558535298904
0.00121541684935
0.0849838959538
0.362311206427
0.368166351394
0.184792646385
0.0716457128045
0.0431906202465
0.126177652107
0.356298959679
0.600749732749
0.776296934526
0.87227478466
0.887899878758
0.841476261489
0.786054299369
0.721555321176
0.549086512366
0.280948924981
0.0684258892043
0.0079903598314
0.000754202829309
0.000642447802005
0.000602609018954
0.000578795996065
0.000562336807358
0.00054998661421
0.00054023868935
0.000532295802503
0.000525701212036
0.000520181671028
0.00051556867067
0.000511749582218
0.000508631478369
0.000506116680034
0.000504095839168
0.00050246028551
0.00050112273195
0.0005000202079
0.000499120711475
0.000498408222616
0.000497880636652
0.000497519838751
0.000497316778402
0.000497312122174
0.00049764044877
0.000498562431423
0.000500508031857
0.000504205969071
0.000511043255095
0.000523939216549
0.000550971078542
0.00253121649267
0.0975955066763
0.317118755325
0.361426295071
0.236517739423
0.098657639915
0.0952036689534
0.250212804129
0.460880686188
0.62075813213
0.703911015308
0.717975965522
0.701623205066
0.701646108809
0.646740993365
0.444937308156
0.179760597222
0.0301635757353
0.00274694873124
0.000755036941089
0.000643797262967
0.000604020782925
0.000580227591669
0.000563779393471
0.000551436137325
0.000541688388359
0.000533731907708
0.000527098607898
0.000521498727804
0.000516742639169
0.000512696034283
0.000509251476558
0.00050631159483
0.000503783065568
0.000501579896543
0.000499631666215
0.00049788442994
0.000496306995813
0.000494887266841
0.000493633755206
0.000492566359159
0.000491719617044
0.000491143620224
0.000490907546121
0.00049110969908
0.000491905257847
0.000493581131222
0.000496733227481
0.000502621041788
0.000513787374932
0.000540270760197
0.00291682854322
0.0672603133114
0.246554603408
0.358672823826
0.344230639092
0.261974001583
0.227388259587
0.308292980083
0.426883516551
0.513577880096
0.571481430854
0.62559912766
0.633782407239
0.506255532807
0.261642875472
0.0607433882509
0.00578135850338
0.000745184898273
0.000755821749295
0.000645068131551
0.00060534846039
0.000581570572655
0.000565128436031
0.000552787129787
0.000543035737791
0.000535065607836
0.000528401858769
0.000522745593371
0.000517896460193
0.000513709880792
0.000510071619241
0.00050688333728
0.000504056539162
0.000501512758558
0.00049918770091
0.000497032943124
0.000495022006628
0.000493150715452
0.000491437548846
0.000489917899587
0.00048863684755
0.000487636635257
0.00048694489817
0.000486571235063
0.000486522497782
0.000486854344057
0.000487784240573
0.000489881594862
0.000494311294974
0.000503142365587
0.000524178475897
0.00142247118548
0.0247911082857
0.135540565665
0.280400087609
0.372282769065
0.409537894009
0.431551901683
0.470498594853
0.523773291386
0.567111309982
0.559313170761
0.44660391575
0.234984078179
0.0542999418
0.0046870443649
0.000675011696797
0.000547661288164
0.000756561123362
0.000646266563344
0.000606599042507
0.000582832894401
0.000566393111824
0.000554050169723
0.000544292648384
0.000536309163118
0.000529620730714
0.000523923279034
0.000519010725477
0.000514733277189
0.000510973294868
0.000507631672958
0.000504621686617
0.000501868004673
0.000499309267802
0.00049690073432
0.000494620121968
0.000492469240312
0.00049047313513
0.000488673528951
0.00048711641059
0.000485834101106
0.000484827111117
0.000484054133649
0.000483441522364
0.000482927104853
0.000482551780116
0.000482593760562
0.000483702702096
0.000487001063125
0.000494098071137
0.000507404761919
0.000607772673638
0.00329476400628
0.0268299276723
0.0999973692833
0.200130657172
0.285160617872
0.339651325384
0.35692004454
0.321686329782
0.213895489041
0.0715351383321
0.00783499692006
0.000819313544666
0.000546521359528
0.000530037812327
0.000522449663189
0.000757258734559
0.000647398780595
0.000607779960766
0.000584023208476
0.000567583417819
0.000555236712999
0.000545471951
0.00053747625313
0.000530768253281
0.000525040979504
0.000520085323981
0.00051574885111
0.000511912262636
0.000508476151525
0.000505354762243
0.000502474546011
0.00049977599064
0.00049721667979
0.000494776904491
0.000492461744645
0.000490299676349
0.000488334639469
0.000486610944424
0.000485152866443
0.000483943649188
0.000482912469822
0.000481941745278
0.000480909747172
0.000479776702659
0.000478697130569
0.000478113149152
0.000478789352656
0.000481706037137
0.000487780793993
0.000497719296383
0.000512800771469
0.000561331770858
0.000966047199336
0.00289189794281
0.0070445573055
0.010287331947
0.00785696440758
0.00268447255857
0.000761786719631
0.000549680154599
0.000523667224185
0.000512566265194
0.000507275031587
0.000505554441842
0.000505101038686
0.000757918053771
0.000648471872704
0.000608900222574
0.000585151974049
0.000568711150946
0.000556360002756
0.000546588377142
0.000538582815953
0.000531860779163
0.000526113819136
0.000521131314026
0.000516759601264
0.000512878724098
0.000509389318853
0.000506206299769
0.000503257337259
0.000500484389391
0.000497846290512
0.000495324045499
0.000492923087995
0.000490672782654
0.000488617148182
0.000486798532426
0.000485235826634
0.000483901865208
0.000482708933893
0.000481515000183
0.000480167077963
0.000478590602312
0.000476891280675
0.000475424902777
0.000474803615404
0.000475791044462
0.000479065243647
0.000485007270244
0.000493502940465
0.000503848173821
0.000514741705371
0.000524435621629
0.00053097864767
0.000532383902839
0.000527576882902
0.000517823072049
0.000506252702467
0.000496288017705
0.000489491621539
0.000480728175225
0.000452040826381
0.000414584635458
0.000410474691091
0.000738314752977
0.000656558970491
0.000613770780674
0.000588713186304
0.000571591112324
0.000558829865191
0.000548785531256
0.000540584863388
0.000533715098851
0.000527850710586
0.000522770927555
0.000518316102457
0.00051436283156
0.000510809947832
0.000507571087511
0.000504572527161
0.00050175487382
0.000499074686262
0.000496513317095
0.000494067883996
0.000491677461113
0.000488953970015
0.000484886906223
0.000478267104459
0.000469229271081
0.000460150667946
0.00045389463125
0.000451520573989
0.000452787273871
0.000457916053741
0.000465500157749
0.000470171785638
0.000472416007181
0.000474849005167
0.000479031772604
0.000485274748429
0.000493013636896
0.000500965581566
0.00050740867721
0.000510766974107
0.000510620376506
0.00050605242842
0.00049381834344
0.000341788127534
0.000481620438665
0.00178770314475
0.00537416967118
0.0117703869307
0.0201770839413
0.0287245737021
0.00142264217013
0.00383156686116
0.00540300978515
0.000693712653267
0.00102740661826
0.00123793807751
0.0031536509976
0.00541343546867
0.00646425319589
0.00835373228186
0.00427547876085
0.00372071067744
0.00764479161839
0.00825831513245
0.0102548814149
0.0109781034181
0.0113040291102
0.00908288404787
0.00792889270139
0.0103768660491
0.105756376173
0.0139963842267
0.012088827081
0.0170390049321
0.00743035591668
0.00982091947958
0.0963412718588
0.0313681962051
0.00217922087286
0.0034047647502
0.00571546670228
0.000981837804843
0.00192783207904
0.00160187988822
0.00705668931457
0.00824536653246
0.00818965273926
0.00757888711338
0.164300462309
0.0887980512186
0.139001331823
0.179398502646
0.209232347398
0.239943182257
0.140370488736
0.0909343017419
0.190625747894
0.107446660297
0.00137715810098
0.000813125069175
0.00277078311593
0.000867566360379
0.00137291834097
0.000722628822249
0.0017162050669
0.00363911943824
0.0032229803644
0.00405616104043
0.190577834718
0.113687759904
0.0521516133476
0.0446210769601
0.7095395042
0.5146852902
0.884063736345
0.596653979301
0.603716052436
0.454183819325
0.948692089788
0.00142969934801
0.000800085119049
0.00235278770484
0.000743654323486
0.00152365701569
0.000752967257626
0.00162216865088
1.03793407214
0.397275754478
1.08662717908
0.399222784963
0.954830730429
0.391629881563
1.18812637267
0.00130842087106
0.000779555084158
0.00225853456397
0.000746972595991
0.00129583686446
0.000741980362333
0.00145410844401
1.37839764491
0.584944928395
1.43182929563
0.522950967084
1.22061343418
0.301074062625
1.51262350373
0.00127425566284
0.000611227897991
0.00171350209255
0.000723182774581
0.00119859546448
0.00109802052117
0.00136969086325
0.00259334564304
0.00344655553851
0.00341992841914
0.143844370483
0.859017973363
0.0598620006382
0.263266962846
1.51449019882
1.05802985916
1.55136234139
0.152565236146
1.50858610536
1.35862558917
1.32946161917
0.00370831961502
0.000674985299214
0.00274799827819
0.00241073189171
0.00839316722237
0.0016877976527
0.00238436181829
0.00627462949196
0.0085797094214
0.0048690046348
0.00870247049803
0.15458267624
0.0689350809325
0.13865344588
0.227892072264
0.405546264537
0.308400194894
0.696434827938
0.00406262685852
0.0715730562004
0.158698308292
0.413461221511
0.00716035563223
0.000605408831908
0.00336552571196
0.00285924037304
0.00697643210752
0.00112856146891
0.00136778414876
0.015361617443
0.00251383913406
0.00401146124461
0.00580555442586
0.00749361168895
0.00548161690275
0.0033252080796
0.0453758468249
0.00684107483504
0.00907140561203
0.00769416928118
0.046224769587
0.00886251815042
0.00791578622482
0.0856921841017
0.0118540046211
0.0291502729068
0.033967101822
0.189035164597
0.0137065875765
0.0135588953848
0.000429239711963
0.000410397443582
0.000461736162095
0.000604622908627
0.00120642949478
0.00226351839905
0.00224439254676
0.00162425987959
0.00126805554576
0.00112026035265
0.00106461770531
0.00106064587481
0.00108140243694
0.00111921578054
0.00118941196001
0.00130044193504
0.00142134562893
0.00150194447618
0.00154244809578
0.00159916014656
0.00172234629141
0.00191239000349
0.00212901232082
0.00235756652644
0.00262477533351
0.0029158954235
0.00309597440074
0.00293361799423
0.00234674906094
0.0016067807462
0.00108991389728
0.000849398521964
0.000742995875963
0.00066970768219
0.000605001951337
0.000559894647349
0.00054299140098
0.000549321728559
0.000570160921331
0.000595961593485
0.000632068457532
0.000671318900486
0.000723923686556
0.000795172356974
0.000885706194446
0.000995510499398
0.00112347789236
0.00126673818435
0.00142059195339
0.00815117961101
0.000555728009061
0.000476934091798
0.000450252961851
0.000439036707393
0.000434733848368
0.000433885754554
0.0004350919866
0.000438307719247
0.000443168524985
0.000448728666247
0.000454467522459
0.000460247490063
0.000465923390129
0.000471502812355
0.000477115708875
0.00048257685017
0.000487557851999
0.000492014986916
0.000496158611824
0.000500169349166
0.000503943913732
0.000507382136504
0.000510698509409
0.00051461996135
0.0005200994405
0.000527933072184
0.000538878366579
0.000554118961514
0.000576866446784