/*--------------------------------*- C++ -*----------------------------------*\
| =========                 |                                                 |
| \\      /  F ield         | OpenFOAM: The Open Source CFD Toolbox           |
|  \\    /   O peration     | Version:  2506                                  |
|   \\  /    A nd           | Website:  www.openfoam.com                      |
|    \\/     M anipulation  |                                                 |
\*---------------------------------------------------------------------------*/
FoamFile
{
    version     2.0;
    format      ascii;
    arch        "LSB;label=32;scalar=64";
    class       volScalarField;
    location    "3";
    object      p;
}
// * * * * * * * * * * * * * * * * * * * * * * * * * * * * * * * * * * * * * //

dimensions      [0 2 -2 0 0 0 0];

internalField   nonuniform List<scalar> 
104960
(
2.19827659458
2.69740087679
2.89735003242
3.47270941254
3.22724872605
2.2349063077
0.720062932409
-0.882544643155
-2.77968437787
-5.19136713433
-7.99396422919
-10.9762810883
-14.0039107375
-16.8940426776
-19.4732608607
-21.6037145419
-23.1611146693
-24.0165886218
-24.0753728028
-23.3317123565
-21.8351784681
-19.6576771302
-16.8540113504
-13.4823337914
-9.65662629977
-5.54899014413
-1.35356308442
2.733289058
6.53280922299
9.89421620163
12.6889532211
14.8898631886
16.5019843002
17.5478549505
18.0627051263
18.097995394
17.7200315047
16.9850923236
15.9522122865
14.7117103308
13.3412197693
11.9309370078
10.5317486527
9.17322414906
7.86547342961
6.59674265573
5.34008814005
4.063226077
2.73728410691
1.34200196961
3.63412577547
3.39414903465
3.60469390819
3.58356228122
3.01801344163
1.88114701135
0.34342419756
-1.49163663753
-3.71017724503
-6.35956039291
-9.3251938583
-12.4462034621
-15.5526561497
-18.4571968288
-20.9820496822
-22.9747947567
-24.3005012601
-24.8506488986
-24.5737192796
-23.4849411429
-21.6409257793
-19.1080815032
-15.9580336125
-12.2848906137
-8.22695552498
-3.96261867217
0.30910568374
4.38886582197
8.09919937074
11.2987967582
13.8966185729
15.8803300007
17.2623096246
18.0821066924
18.4014823281
18.267002683
17.7170118388
16.8118411227
15.637268083
14.2863852858
12.8484783743
11.3986991238
9.986881057
8.63710549737
7.34774966014
6.09565102996
4.84582229376
3.56284641727
2.2188533559
0.79552809606
5.32576643396
4.68660330961
4.64431477245
4.35969963553
3.66999080873
2.50965946261
0.903113046124
-1.12273286568
-3.58289795884
-6.46934011232
-9.69624415105
-13.113103791
-16.529496076
-19.7317661497
-22.5071945304
-24.6661499263
-26.0561948159
-26.5762072031
-26.1892917864
-24.9205143069
-22.8366453922
-20.0244085152
-16.5834274813
-12.6336474476
-8.32641893561
-3.84608839899
0.601082185411
4.80834444742
8.59514712466
11.8292061535
14.4388396677
16.4130011544
17.7809483629
18.5910237307
18.8987182871
18.7578927586
18.2136578992
17.2571701973
15.9461828734
14.4509853229
12.891575
11.3484722113
9.87936059778
8.50807035366
7.22668840042
6.00047981059
4.78138219678
3.52472527002
2.19943197266
0.788701596657
7.44407133401
6.51401811898
6.28737178942
5.80824196815
4.96579101905
3.68048464335
1.9112107124
-0.364304949249
-3.15825215817
-6.44879599008
-10.1501486802
-14.1034513002
-18.0849332682
-21.8270875122
-25.0530217004
-27.5150262069
-29.0271017978
-29.4855645623
-28.8739396188
-27.2497033813
-24.7188386329
-21.4113976553
-17.4694759293
-13.0492208325
-8.32975044172
-3.51786658494
1.16145563613
5.49167519639
9.29902694029
12.4770791905
14.9903708623
16.8588639038
18.1327431527
18.870701456
19.128293299
18.95328052
18.3850415071
17.4594196401
16.2221475258
14.66272438
12.9076537548
11.2108028134
9.65148464174
8.24784870531
6.99063241136
5.82100197796
4.6638952984
3.45723761872
2.16586183913
0.777740680091
10.0249485849
8.8473015657
8.50418213953
7.88768233146
6.90355494921
5.45913461798
3.47401084493
0.883990397216
-2.34989638798
-6.21964981753
-10.6416548316
-15.4350653726
-20.3181045904
-24.9305117222
-28.8849476643
-31.8348207766
-33.5346296461
-33.8725897513
-32.8687508545
-30.6452271017
-27.3842483951
-23.2907398236
-18.5717483291
-13.4362770564
-8.10886223452
-2.84044083047
2.1046315774
6.49252229013
10.1722166062
13.098872765
15.3146331471
16.9057029489
17.9620264527
18.5553820102
18.736504081
18.5404020049
17.9913256043
17.1094559832
15.9198972856
14.4609428467
12.777203703
10.9122659954
9.17852455841
7.76312043199
6.5794595588
5.51716281612
4.47664673623
3.35597556577
2.11658133064
0.761828026196
13.0877574314
11.6934591637
11.2890945595
10.5915188426
9.50497640174
7.91676946971
5.70719657023
2.76124462994
-1.01238105948
-5.64974669607
-11.0882863085
-17.1224419322
-23.3798528066
-29.3439403844
-34.4361887272
-38.1386308164
-40.1058549987
-40.2188699799
-38.5690098541
-35.395472194
-31.0105614049
-25.7378634237
-19.8783823762
-13.711851442
-7.52758370376
-1.65465590129
3.55914639617
7.84168176838
11.0976704337
13.4176820383
14.9951984761
16.0322669255
16.682539809
17.0378123893
17.1418728248
17.0103890606
16.6360162291
15.9941111849
15.0633516646
13.8423118632
12.3521060194
10.6337640953
8.74119647021
6.98980601712
5.77919590329
4.99368388885
4.20520190095
3.22065575344
2.05394513766
0.741810660581
16.6311710059
15.054160763
14.6419669397
13.9301574851
12.8106771717
11.141948121
8.7543496062
5.46131003577
1.08263921895
-4.51072343861
-11.3240373531
-19.1467771147
-27.4789922001
-35.5401556932
-42.4094266792
-47.2635150888
-49.5940643501
-49.2945917062
-46.6022169441
-41.964344717
-35.9060226851
-28.9310242273
-21.4671059249
-13.8715460851
-6.50619614429
0.168230174266
5.61474875123
9.46070214523
11.7439383242
12.8349279136
13.184554991
13.1963774505
13.1753164813
13.229602984
13.2952863618
13.4351261978
13.5871017128
13.6039742384
13.3428525571
12.7204706783
11.7239516436
10.3896802096
8.78151368583
6.97530301089
5.25614793628
4.17616242929
3.74384317624
3.08144794542
1.99033743705
0.722253365258
20.6283309618
18.9135256533
18.5529507666
17.9117131299
16.8647608341
15.2353999194
12.7915120824
9.2470644812
4.27936452515
-2.4183263296
-11.023253379
-21.3988900966
-32.8934824316
-44.2752478307
-53.9768240812
-60.6044784886
-63.392047435
-62.3251983976
-57.9513128442
-51.0853875711
-42.5904875496
-33.2408570727
-23.6296097719
-14.1632628301
-5.22235198584
2.54547059211
8.13427989139
10.6879251668
10.699501581
9.62309598945
8.1785808006
6.58716338743
5.04306555877
3.93916063248
4.00936847316
5.67734538874
7.49334423035
9.04415719178
10.2228605005
10.7958647326
10.7223054604
10.0773097494
8.98235234972
7.56749477009
5.95262911075
4.38529600387
3.42578709947
2.96788196769
1.96739890529
0.71353312758
25.0215380358
23.2288362816
22.9880665995
22.5227943399
21.6936587277
20.2905626474
18.0134781369
14.451443357
9.07206410492
1.25523101653
-9.5629973014
-23.5541592022
-39.9801938039
-56.8257765383
-71.2032125348
-80.5819214165
-83.8193094894
-81.2615287463
-74.1425840233
-63.9051073002
-51.9133982039
-39.3572866439
-27.0780834751
-15.4557392022
-4.65683087085
4.51535585965
9.19775073552
9.53981023849
7.83265349304
5.39206820653
2.3650114149
-1.22816922804
-5.19041847349
-8.97433337159
-11.2934323541
-10.4013469897
-5.37657417662
0.727482757669
4.88855671323
7.63237621141
9.08562876565
9.48757824299
9.10727479313
8.18909209946
6.93325233122
5.48440787197
4.04948169996
3.1227390219
2.0264834272
0.729394461457
29.7178650173
27.9223996274
27.8756272254
27.7078759863
27.2775107791
26.3567648457
24.5919161416
21.4441124918
16.1144136709
7.48875517163
-5.779322991
-24.7852507692
-49.2021486714
-75.5868329688
-98.0384161452
-111.640300026
-114.834628391
-109.195911571
-97.507775247
-82.2073697848
-65.2112426561
-48.3913361272
-33.1308234154
-19.7807222106
-7.90169043744
0.399610527963
5.78377886298
6.46162472834
3.51016515567
-0.421220547894
-5.91950303333
-12.8504775239
-21.0620631644
-29.1332136095
-34.3727520525
-34.2757496356
-27.4667777337
-14.9313159227
-3.80612009538
2.71086387605
6.50467583621
8.37274760855
8.9094190646
8.56437430528
7.67316585099
6.46793929185
5.0244790356
3.58512589564
2.15317598163
0.758707172755
34.5879096264
32.8760402043
33.0950654529
33.3488247022
33.5153107128
33.3832539798
32.592608834
30.5282623104
26.1394573294
17.6726547099
2.41388557979
-23.1430297075
-56.931520851
-105.08700959
-146.141840203
-169.99151666
-172.189839986
-159.952398066
-131.505628441
-108.849123933
-84.5632274727
-61.7869151763
-43.4324873342
-30.2805308498
-22.9638504183
-21.0984296437
-12.5082334045
-7.0296487187
-8.76249956658
-14.3192872539
-23.0067298841
-35.6430836466
-52.0758786438
-67.495681655
-75.1370011045
-71.9893159602
-59.2199249839
-39.1068804579
-17.502214097
-4.42626471719
2.69036701737
6.47656556284
8.13371342926
8.43224758624
7.90194708236
6.90712785532
5.56244135547
3.85443778395
2.21047277257
0.754936879588
39.4699218116
37.9308168131
38.4716926525
39.2499193009
40.1914583976
41.1517769603
41.8498465034
41.7298231022
39.6709069922
33.3964187041
18.3485531668
-6.14029704276
-65.9488028535
-127.41710858
-186.945433179
-219.744978207
-211.727412002
-246.013124079
-192.296395143
-149.124863657
-113.561845381
-80.8799028877
-58.4568553585
-48.3687501518
-54.4876915865
-70.0267392671
-62.4794938996
-37.274973707
-31.5323825913
-36.9099891169
-49.8457189183
-72.3619101644
-102.975461519
-130.301161664
-140.605682869
-129.195447402
-102.892652996
-70.0351389958
-36.3553102922
-13.9267126549
-2.54395163932
3.56119657061
6.53266832336
7.5529588822
7.37771893015
6.4794783624
5.05407718218
3.43917651515
1.95359485984
0.662435180992
44.1807755501
42.8946055138
43.7820341301
45.1371021722
46.9597153099
49.2240388539
51.8316657138
54.4920811624
56.4130001359
55.483494633
52.3103438207
24.9598305407
-59.0845692144
-200.770738885
-316.117492001
-276.753301043
-288.384089029
-233.8822919
-160.501775183
-106.250796556
-74.9642650296
-67.9414901919
-85.5026141133
-113.327235212
-106.661064937
-69.9508556479
-57.9433046251
-63.5746142734
-82.8278050494
-119.414287238
-167.673328401
-207.293903823
-219.300802649
-197.938444527
-154.002837154
-104.250550754
-57.3593430509
-25.2789438275
-9.25230623186
-0.603115206152
3.86039530421
5.73236383238
5.98184871649
5.20579732707
3.94045605455
2.62924720144
1.42529485066
0.433868085692
48.5335464229
47.5588543057
48.7733007762
50.6805213066
53.3655550115
56.9495143479
61.5873024561
67.432107964
74.4762111302
81.9427152957
91.1706844345
55.7511213508
-24.6959132867
-249.924135994
-305.719818087
-249.832232473
-135.720814335
-84.7748329628
-75.9905489349
-93.4002311434
-120.818993881
-116.460420972
-85.2888876027
-76.1396007514
-85.1384126075
-112.771392399
-164.005831444
-226.27579926
-273.154505931
-285.257349393
-256.43947087
-198.692069101
-134.300680884
-76.2674659254
-37.3542098275
-17.4606500342
-6.34284428513
-0.231906510868
2.70307141759
3.65577388746
3.53870615177
2.82716169652
1.87387036115
1.00768932408
0.311418290124
52.3592180647
51.7230647428
53.1964178291
55.5428520724
58.9193901476
63.5753078367
69.8977771408
78.4811692517
90.2105177056
106.243785289
128.162314636
147.652240464
-268.676742694
-314.579390506
-308.173733045
-154.979004849
-78.4258376704
-67.0988440913
-81.2819950635
-104.077494566
-98.0782550449
-80.6629573813
-78.9654920816
-92.8818612647
-128.198185758
-189.218910335
-257.48939071
-306.164459064
-317.285591097
-285.124439747
-222.225515394
-151.686467838
-89.3921176803
-49.2516344518
-27.4228598509
-14.3372781189
-6.57167907503
-2.2964352863
-0.129981118166
0.598697763872
0.518395175167
0.240605991256
0.0702962428968
-0.00360405403845
55.5281172616
55.2222278358
56.8458033042
59.4435235503
63.2077045299
68.4483231049
75.6585635683
85.6282519013
99.6337204666
119.704459453
144.99739112
174.789057504
-184.545872299
-264.675681912
-254.26239031
-116.133423026
-63.9789532006
-56.7912129181
-66.8235914455
-78.2099733579
-69.8861662001
-64.0365468711
-67.2850970143
-83.7004809237
-122.028215657
-184.755162446
-251.460427429
-297.596368029
-307.205914772
-276.394071973
-217.812538369
-151.870920495
-95.6671760597
-60.8524782197
-39.8813371179
-26.2684928299
-17.4589261537
-11.5171938976
-7.67991929702
-5.38224691734
-3.94170546412
-2.76975977151
-1.63914177986
-0.588350374202
57.9659071723
57.9502810133
59.5943168107
62.217281499
65.99961654
71.2234230808
78.3169965743
87.9177937139
100.93442735
118.467868843
135.432127734
152.947443328
162.002469893
-115.853335813
-149.896154498
-109.434140117
-73.9524710356
-65.0910213237
-60.1045658314
-55.5868043779
-51.8821063741
-45.6987315729
-42.6662005777
-46.173157305
-60.5725365595
-95.1090541749
-151.213890921
-210.270011089
-250.650969607
-259.188875266
-234.384902377
-187.776285308
-136.489366756
-96.7758914505
-72.3018814253
-56.3864815355
-46.0397618995
-38.5164280953
-31.7233860365
-24.4256822106
-17.3335965581
-11.7856789051
-7.6578817299
-4.29318523354
-1.47364237895
59.660219178
59.8728644845
61.4114381
63.8433284198
67.2978607423
71.9596834447
78.068791773
85.8881531104
95.5554247909
106.54610029
115.88048241
133.797488028
80.07841206
-88.4028869363
-103.15577655
-91.1221814682
-63.1629324312
-67.4861664008
-81.8250921713
-71.1337864656
-45.6077115322
-32.9353542725
-24.8910697183
-20.63017353
-21.3508883253
-30.1238293322
-55.095776061
-97.8698774199
-144.790531158
-177.646487013
-186.155729771
-170.483483226
-140.811788458
-112.093227678
-93.8169422995
-83.3764688235
-78.6386932641
-77.5145870253
-75.9568738557
-69.3916321284
-56.3590912653
-39.7943839064
-24.9691072188
-14.8398529475
-7.92619954343
-2.63806727873
60.6567540185
61.026171063
62.3591625447
64.4342335163
67.3110677683
71.0514095171
75.680529489
81.0884171805
86.7831918621
91.2916503793
90.7744655241
76.6281647749
64.4433793335
-18.0021817876
-82.2445426841
-88.1453104144
-87.0375043114
-91.8345740149
-66.82304572
-44.7356576027
-51.1826742631
-70.8053118203
-75.4396255841
-48.4509311914
-28.2838613137
-15.3923549166
-6.41858626263
-0.422997277955
2.3043680723
0.140054924731
-13.0448977173
-39.0399903497
-71.1085585933
-95.6632424054
-104.840640495
-99.7452730279
-89.788453329
-84.9921128778
-86.1718447047
-92.6283330797
-104.559168073
-117.829788899
-124.321268265
-118.147782532
-98.9884163489
-71.6158210804
-44.133407275
-24.2481571943
-12.2409304144
-3.94998031131
61.0467324588
61.5033936615
62.5690580377
64.1930306997
66.3688696911
69.0517611111
72.1042645389
75.1870360749
77.5464731957
77.6339488793
72.5562764961
57.8078171381
29.277505023
1.04989933077
-41.4509941705
-58.4023504604
-61.6277336616
-58.7826574876
-38.6671927048
-33.7386048209
-36.0376723935
-39.1499418346
-34.1810021926
-22.4845184998
-10.183639083
0.35367905005
9.08292525139
16.1572217872
21.4670543961
24.3747487604
21.1041028382
10.0657274966
-7.16419684508
-23.7103656262
-33.9827667532
-39.4190887018
-46.2393094623
-57.2876222895
-73.4995819078
-97.3639824641
-127.857312081
-155.465273889
-169.116332921
-163.308896059
-139.072265299
-103.007329294
-64.7035680239
-34.4171113099
-16.4651190453
-5.15403461942
60.9497707486
61.4339949817
62.2103800733
63.3592548532
64.8258996719
66.497264835
68.1526168154
69.3810175388
69.456118986
67.1851222348
60.8476442171
48.5827645318
29.8702046016
7.97967229437
-10.5794565357
-22.2312186263
-27.4728628202
-27.7352168737
-25.0198314791
-22.1129573727
-20.2349208363
-17.7944262911
-12.635593171
-4.82150609769
4.03958054456
12.7522939936
20.8689133831
28.2570149054
34.8081516258
40.2410576526
42.8213679038
40.2354090442
33.6401477407
23.0385190103
11.9700571097
0.588407608953
-13.0385283214
-30.9617243992
-56.9226944254
-95.0121350235
-140.186020471
-178.537718448
-197.867208212
-192.902868019
-165.393574304
-123.8210327
-79.285567954
-42.1475033665
-19.5018491929
-5.94977714134
60.4964657195
60.9619929215
61.4597695471
62.16343451
62.9920945937
63.8041350421
64.3627005517
64.2886691612
63.01014481
59.7433911487
53.5920133874
43.9092115847
30.9919162064
16.6795179193
3.78658325834
-5.62624114778
-11.0404370753
-12.9507103007
-12.3977793831
-10.5436482394
-7.97430467915
-4.4285070588
0.566677238015
6.94632745436
14.1527994368
21.6197351522
28.9970306823
36.0947412671
42.75791646
48.7253133256
53.2929844863
53.9619001362
51.1085119682
44.645214072
34.9760688792
23.8847326307
10.2016872018
-8.6159571228
-38.4666717464
-83.4708869726
-135.794918437
-179.823494564
-202.78261367
-199.166405058
-171.050381057
-128.354037945
-83.0699907023
-44.5174423961
-20.4618543271
-6.1423662168
59.8140920605
60.2281067543
60.4793216278
60.7996715687
61.1011522505
61.2430816913
61.0129820239
60.1073935441
58.1247801463
54.5964621024
49.0965430451
41.4641380585
32.0885275457
22.0377148913
12.7549657976
5.43665269746
0.634945405196
-1.70411884593
-2.01250996576
-0.817563282022
1.53495513698
4.96746394562
9.48718876246
14.9622902444
21.1006939477
27.5782325049
34.1322459909
40.5611060049
46.6640316582
52.1441719911
56.4716723905
58.4613393011
56.4115753655
51.582643454
44.7495729883
36.0039439925
24.372440711
7.68418266843
-20.0455999835
-63.2085005267
-114.122319472
-157.881493805
-181.675938953
-179.727273748
-154.485685539
-116.311554637
-75.8429773691
-41.058569008
-19.2662261389
-5.7485849917
59.0169864063
59.357965147
59.4048012689
59.4159955025
59.3093578743
58.961929377
58.2024012974
56.8085254729
54.5185817857
51.070700023
46.2836260121
40.1760010338
33.0792434072
25.6516385034
18.7212191573
13.0207448507
8.98789539368
6.72863089543
6.1064278976
6.88387802438
8.84951751219
11.8637313382
15.811019884
20.5319962983
25.8102213381
31.4094625898
37.1089238932
42.7043927256
47.9751316891
52.6255067146
56.2148727656
58.1130701264
57.349031739
53.4058181377
47.6296739588
40.558980328
31.2265476671
17.4824403984
-4.47151829701
-38.8467826203
-80.9862039754
-118.707076706
-140.42608242
-140.672746456
-122.203797856
-93.3585046867
-61.3180568282
-33.9714720653
-16.6438148332
-4.96143054906
58.2017228956
58.456402125
58.3423428516
58.1167552933
57.710118476
57.0237463088
55.9292509339
54.2738019675
51.8963929608
48.66084547
44.5075106231
39.51442148
33.9412024714
28.2183329572
22.8627827488
18.3508904718
15.0133611233
12.9977533117
12.2972783349
12.8144268846
14.4217256754
16.9906464722
20.3850102305
24.4435500997
28.9774592672
33.7847030951
38.664552397
43.4179802545
47.83028127
51.6408661898
54.5134117581
56.033875979
55.7711803188
53.2971578853
48.4322663656
41.7185929994
33.0787648244
21.494558304
5.00598537779
-18.6868653769
-48.2603474273
-76.2843637412
-94.1085479475
-97.3444668781
-87.2217925192
-67.880108598
-44.9609701203
-26.4590960524
-13.508857669
-4.02180744365
57.4462338759
57.606480641
57.3705447124
56.9707605492
56.352587536
55.4416425996
54.1468307487
52.3683139901
50.0127432957
47.0173815343
43.3814872011
39.1973394522
34.6667377372
30.0876661068
25.8066790334
22.1520721372
19.3752919347
17.622287447
16.9383477503
17.2939019522
18.6132796721
20.7924091926
23.703278591
27.1932624503
31.0887746486
35.2046651609
39.3534469969
43.3477430861
46.9933902798
50.075821752
52.3479502111
53.5330296979
53.355089873
51.5876506908
48.0276678008
42.3352972049
34.2649863447
23.5658652661
9.69491140875
-7.69141005751
-27.571481784
-46.526160849
-59.7737926249
-63.8969043016
-58.4067523643
-45.8456260891
-31.9139318729
-20.0671426862
-10.5189956663
-3.1188575013
56.8118441932
56.871508642
56.5450529342
56.0206123263
55.258058365
54.2038355476
52.7959142715
50.9720670115
48.68240088
45.9061300757
42.6704026887
39.0661438093
35.2536438879
31.4514065879
27.9076416372
24.8620361801
22.5106567283
20.9849622895
20.3478523661
20.6020286359
21.7025130687
23.566862689
26.0811206851
29.1041166828
32.4738107649
36.0163753835
39.555436587
42.9178561828
45.9337322215
48.430973645
50.228385563
51.1335365697
50.949332035
49.4841723056
46.5482922946
41.9186744058
35.2723293413
26.2045640526
14.5506758498
0.714915779737
-14.0661271237
-27.5506802384
-36.9890287849
-40.3391137295
-37.6450356095
-31.1434796162
-23.0190878625
-15.010263037
-8.0217109864
-2.35680230271
56.3479085055
56.2983805271
55.9033782189
55.2907333342
54.4320629061
53.2893709399
51.8211925733
49.9902371316
47.7733260935
45.1731022099
42.2295541325
39.0282520081
35.7015834644
32.4201109437
29.374144466
26.7495168426
24.7045234553
23.3546066691
22.7658139505
22.9552103277
23.8952272943
25.5192881781
27.726758575
30.3878203795
33.3502398842
36.4488019733
39.5159632827
42.3911089415
44.9256826225
46.9815030982
48.4232320321
49.1098034387
48.8881204345
47.5887541018
45.0205681782
40.9677487001
35.2049101584
27.5587830933
18.0420449859
7.05631526131
-4.41470300777
-14.8111073337
-22.4056138145
-26.0186794062
-25.5734224544
-22.0531092574
-16.8820623704
-11.3032458746
-6.12371310825
-1.77295570601
56.1025678286
55.9201507858
55.4685851371
54.7939781754
53.8733878074
52.6781759947
51.1796747427
49.35547163
47.1974956744
44.7208744112
41.9713693773
39.0297135485
36.0111570015
33.0587179239
30.3300795579
27.9795737324
26.1399076428
24.912387278
24.3610341361
24.5086589081
25.3362982719
26.7881970414
28.7754316373
31.1791543842
33.8557557289
36.6460842105
39.3873291392
41.9251518396
44.1255012699
45.87640134
47.0744785464
47.6104654761
47.3553629471
46.1540211591
43.8207627536
40.1502345393
34.953509754
28.1333419701
19.800322391
10.3932601432
0.727296035773
-8.02024992647
-14.5632250166
-18.0513558727
-18.4271734352
-16.3560972872
-12.8288399898
-8.76620150756
-4.82098508235
-1.38503795941
56.0535617378
55.8133821676
55.3313782584
54.643633865
53.717429048
52.5282152006
51.0524846677
49.2727430552
47.1850335039
44.8082874546
42.1872564865
39.3961240503
36.5381669704
33.7408845942
31.1467038384
28.8987155223
27.1117272801
25.8752877538
25.2675860028
25.3096683584
25.9893399129
27.2612143452
29.0514553015
31.2571732148
33.7463039209
36.3647394685
38.9498045691
41.3390783424
43.3926212871
45.0231472837
46.1534883314
46.6925857562
46.5280082354
45.5115355025
43.4617578693
40.1780731557
35.4814854503
29.2924422861
21.7382560522
13.2607004815
4.48908471635
-3.66657851612
-9.96011673121
-13.6056909571
-14.5175125448
-13.2621024171
-10.678122729
-7.55950278314
-4.45101048009
-1.58881977151
-165.839578186
-172.942048796
-219.530295755
-124.196381035
-152.067226532
-143.833777132
-192.354057978
-222.01845995
-260.182446292
-272.515050853
-207.321254968
-208.041206463
-245.339304579
-310.518009422
-245.724637512
-319.11439615
-290.567796326
-253.254052309
-233.137648195
-287.248061786
-332.317874412
-225.947828536
-276.951156084
-249.072769928
-214.010386215
-218.811414607
-321.710839894
-282.367611909
-88.0469572829
-26.0969521178
-113.047042628
-52.7879041977
-87.8028014366
-28.7338148002
-124.255644894
-321.426030976
-290.924724469
-330.86866785
-286.653842832
-311.668748654
-284.014068684
-272.755987251
-273.211797752
-260.091688648
-280.82459513
-240.602174346
-268.824651611
-267.599811214
57.490411773
120.514786792
93.6855346628
58.9572167425
48.709755782
94.3060861694
114.902744041
25.5630722539
-11.5130113633
14.0689540348
-265.662273416
-266.640663262
-270.011525554
-267.747665733
-263.108919364
-267.860268616
-274.751767246
-260.833821022
-260.737579627
-263.100261896
-274.287469162
157.703083037
169.991521146
162.611182823
126.766773794
131.450532147
156.252715474
185.214054902
-270.11949182
-258.118991876
-272.166785597
-268.622688241
-273.229234787
-259.716577873
-251.198154271
191.237594006
172.762559757
196.442561708
169.930483187
184.820092895
174.19372701
181.832826558
-196.036308857
-147.964078817
-191.055708775
-192.020876249
-239.741481593
-143.677854448
-158.630215066
156.055677944
113.444064818
113.885646132
166.060919267
175.264093097
139.035874874
120.349662986
124.645796177
165.382801042
111.372853667
-107.39703441
-101.201007021
-110.926504185
-97.0453752245
-123.082421929
-101.189897946
-113.761068324
-128.000446436
-147.253744223
-106.99538952
-93.7616724431
41.5236460131
53.6726166935
20.9759943833
96.4548493933
88.3815127442
46.3591334823
27.5914684567
-64.1341778252
-142.555121545
-35.5764558359
-177.709423753
-87.658714278
-87.5153179769
-87.8895128844
-84.6599571094
-88.8735358293
-85.217624846
-82.7663540796
-87.4725459144
-92.2231722848
-86.372909773
-75.970131082
-98.5863847263
0.907074845364
-56.5347461204
-31.1214020957
-98.5716711253
-29.6152208112
-35.2363100512
-88.2761661454
-48.2483340076
-53.6240411891
-73.265824476
-85.0328995127
-62.883579239
-51.2243977875
-90.496435119
-61.8345016229
-59.6194065786
-85.1538162623
-87.4999981636
-70.7257486867
-59.0978065303
-78.4560193938
-64.2540581696
-68.7726190508
-88.8835118521
-85.2579603537
-67.3294557876
-58.5769911063
2.62398387461
2.8313449684
3.39924972953
3.36029978591
2.55867695643
1.12062133761
-0.462377650989
-2.27469875708
-4.55288786834
-7.285707475
-10.2368857476
-13.2741221304
-16.2209657543
-18.8979574699
-21.1561246748
-22.8710848028
-23.9130867569
-24.1743680792
-23.6217304049
-22.3070822564
-20.2903419724
-17.6300863412
-14.3883551021
-10.6564748427
-6.59656379785
-2.39985017617
1.73663480456
5.62607373457
9.11105701596
12.061980707
14.4071886056
16.1676247384
17.3532004217
17.9973369798
18.1460531793
17.863550224
17.2094392156
16.2401912931
15.0409005516
13.6939606519
12.2852512826
10.87856482
9.50734205004
8.18729846738
6.91144348911
5.65549578053
4.38735238089
3.07650774545
1.70008416222
0.238998063978
3.04153145378
3.30424131813
3.54968669458
3.44999654092
2.74404937459
1.47647553011
-0.125930780876
-2.0225698234
-4.32693856963
-7.05440081775
-10.0531731357
-13.16498766
-16.2149281602
-19.0176484621
-21.4043242992
-23.2316685852
-24.3695210339
-24.7188099172
-24.2438782604
-22.9740958741
-20.970845444
-18.2987051096
-15.0328207231
-11.2709330201
-7.16381385251
-2.89709170621
1.32881019658
5.31864213016
8.9033540201
11.9527231897
14.3912127232
16.2171078337
17.4558442771
18.1500814208
18.3548918929
18.1169293647
17.4772772547
16.5062823353
15.290054697
13.9200029591
12.4819884459
11.044776416
9.65123215124
8.31896863077
7.04092821803
5.79087600648
4.53365016989
3.2358169487
1.87214116463
0.429387802718
4.44849491942
4.50276295778
4.44621613193
4.09905314789
3.30931446568
2.04329375636
0.349087188877
-1.75405069387
-4.28808203258
-7.23092570197
-10.475964052
-13.8617601506
-17.1936960182
-20.2609608389
-22.8607058315
-24.8164554393
-25.9891713277
-26.2920774547
-25.7026527736
-24.2563335866
-22.0235360963
-19.0903204301
-15.5562587824
-11.5449074329
-7.21413040796
-2.75370901165
1.62898153397
5.73202536254
9.38475400224
12.4670927115
14.9206564271
16.744633489
17.9735453753
18.6568880132
18.8506562845
18.608205355
17.9564176378
16.8916015295
15.5409530264
14.0445590281
12.5007847662
10.9856223565
9.54741624638
8.20233199025
6.93626985798
5.71155382139
4.48167939639
3.20607650406
1.85768716863
0.425595187563
6.31726790143
6.22303441798
5.96406694756
5.42450621065
4.49573120974
3.11149796346
1.24394041587
-1.12271228095
-3.99443829475
-7.33573353323
-11.0429480628
-14.9425214186
-18.8033565771
-22.3611276289
-25.3527843962
-27.5517069639
-28.7953236313
-29.001614123
-28.1705932388
-26.3685391551
-23.7025607189
-20.2993782052
-16.2978218487
-11.8538192451
-7.1492212397
-2.39323713134
2.19111017332
6.39566247077
10.0595464457
13.0893012138
15.4590958834
17.1938285119
18.3445328949
18.9689256042
19.1214849296
18.8488661
18.1898449636
17.1838249189
15.8592501096
14.2134401814
12.4815114277
10.8367773016
9.32426181211
7.9629742661
6.72867302134
5.55887910323
4.38461125831
3.1517912618
1.83210723705
0.419618962252
8.64780974845
8.46536652179
8.07442661009
7.38975533599
6.31565778934
4.76463002089
2.66495653532
-0.0372005308154
-3.36727916165
-7.2982954818
-11.7237174816
-16.441410853
-21.1570849277
-25.5133810026
-29.1439358443
-31.7368790419
-33.0857284338
-33.1123528146
-31.8585256987
-29.4543765604
-26.0787524793
-21.9271489924
-17.19731941
-12.0933237651
-6.83915497814
-1.68448327072
3.11496367155
7.34305004805
10.8688549512
13.6607884494
15.7635814976
17.2578798484
18.2252215
18.7308159094
18.822171387
18.5333417727
17.8895153563
16.9143879529
15.6385787479
14.1103649889
12.3518860298
10.5007136803
8.87718433926
7.53034511189
6.3657202778
5.30107144872
4.23081864505
3.06968059498
1.79394220325
0.41101797197
11.4607319691
11.2325463523
10.7678367569
9.99018560359
8.8000071684
7.08551456881
4.73281397183
1.63823981247
-2.27093380882
-7.00336484765
-12.4614965849
-18.4040018576
-24.4342634587
-30.0367221172
-34.6662619108
-37.8639625311
-39.3505619433
-39.060488376
-37.1148344491
-33.7585259428
-29.2918283575
-24.0177473818
-18.218075904
-12.1621879986
-6.13809668237
-0.47135954014
4.51180204074
8.579454963
11.6724620268
13.8921202575
15.4187350613
16.4304810928
17.0578841463
17.3768206659
17.4236079896
17.2113471411
16.7333207607
15.9721755628
14.918917538
13.5835464395
11.99656059
10.1988888284
8.30144981785
6.72516080958
5.67991870104
4.88633659038
4.00941967048
2.96008212223
1.74448024438
0.400392007909
14.7639496603
14.5262986133
14.0450813879
13.2405684843
11.9983394266
10.1738685205
7.59970377492
4.09927130715
-0.485745345075
-6.24614546046
-13.1312545423
-20.8653793746
-28.8966412529
-36.4370772483
-42.6219170296
-46.7341567635
-48.3814884175
-47.5431140638
-44.4943444608
-39.6798855212
-33.5957666409
-26.7052252946
-19.3997655902
-12.0205424067
-4.93685362761
1.38514840476
6.45357156571
9.9943721529
12.1187011924
13.1963087053
13.6357405196
13.781790933
13.8556971564
13.9107239502
13.9746430305
14.0640439214
14.0933291114
13.9337964901
13.4737020678
12.6599196338
11.4966988312
10.02765371
8.31436201591
6.46772478145
4.92160348976
4.12070690913
3.68642761753
2.84650529877
1.69193653323
0.390310026694
18.5439262634
18.3340723728
17.9012455951
17.1572934193
15.9673186494
14.1463493345
11.4578740033
7.61982148835
2.32986291524
-4.67015220773
-13.4697180493
-23.8097519109
-34.9207861214
-45.5333506082
-54.179616722
-59.6729656344
-61.4606353156
-59.6639046512
-54.8667181849
-47.8560804496
-39.4352713251
-30.3032053715
-20.9831644213
-11.854129237
-3.33711438563
3.85737298147
8.79611053681
10.9188265422
10.8556499404
9.85407155041
8.54145805435
7.14793854741
5.9065930522
5.26844424082
5.89967469228
7.48106625783
8.83006383904
10.0549408632