/*--------------------------------*- C++ -*----------------------------------*\
| =========                 |                                                 |
| \\      /  F ield         | OpenFOAM: The Open Source CFD Toolbox           |
|  \\    /   O peration     | Version:  2506                                  |
|   \\  /    A nd           | Website:  www.openfoam.com                      |
|    \\/     M anipulation  |                                                 |
\*---------------------------------------------------------------------------*/
FoamFile
{
    version     2.0;
    format      ascii;
    arch        "LSB;label=32;scalar=64";
    class       surfaceScalarField;
    location    "3";
    object      phi;
}
// * * * * * * * * * * * * * * * * * * * * * * * * * * * * * * * * * * * * * //

dimensions      [0 3 -1 0 0 0 0];

oriented        oriented;

internalField   nonuniform List<scalar> 
217203
(
0.0110292185985
-0.802065012902
0.800105707379
-0.00906991312734
0.474538815911
-0.470630904616
0.00784809348449
-0.0117560048202
0.501610330312
-0.500103188224
0.0206825679997
-0.0221897101232
0.522482010861
-0.519644411592
0.0222176007442
-0.0250552000464
0.5488120961
-0.545395724792
0.0176545476889
-0.0210709190279
0.583521842867
-0.578859744069
0.0128565422685
-0.0175186410966
0.629633194485
-0.622701125955
0.0141592204578
-0.0210912890187
0.691980043335
-0.683882717356
0.0182544915441
-0.0263518175531
0.756827971106
-0.748777697665
0.0187495181213
-0.0267997915913
0.816804454376
-0.809835322585
0.0157441994159
-0.0227133312333
0.869440010289
-0.863064660284
0.0142300663032
-0.0206054163317
0.917715209757
-0.911999261876
0.0125546979164
-0.0182706458208
0.960085878746
-0.955145156913
0.0108011770545
-0.0157418989124
0.995670088088
-0.991615839608
0.00913488494882
-0.0131891334528
1.02425813834
-1.02109684167
0.00704738179555
-0.0102086784917
1.04488027582
-1.04278370373
0.00435394447465
-0.00645051659716
1.05751165458
-1.05630935659
0.00196965793404
-0.00317195595394
1.06412388472
-1.06357738079
0.000898198861137
-0.00144470281389
1.06645602731
-1.06633957487
0.000805116836742
-0.000921569298239
1.0662186377
-1.06635373343
0.000495306548274
-0.000360210838012
1.06439675136
-1.06467439794
-0.000103841576019
0.000381488133264
1.06235365271
-1.06255150418
-0.000264712448151
0.000462563890378
1.06234631614
-1.06213319671
0.000809075019692
-0.00102219447748
1.06721725448
-1.06625773659
0.0030397902236
-0.00399930814573
1.07857599788
-1.07680745703
0.00541417815261
-0.0071827190283
1.09572513959
-1.09330363705
0.00749487364731
-0.00991637621472
1.11769624928
-1.11468794945
0.00929504080438
-0.0123033406628
1.14470438667
-1.14100451291
0.0107446097506
-0.0144444835407
1.17858727863
-1.1738705789
0.0118008852045
-0.0165175849643
1.22235168166
-1.21624154194
0.0118221271509
-0.0179322669027
1.27757781542
-1.27025367703
0.0101543634347
-0.0174785018497
1.33529718358
-1.32823114792
0.00962924901504
-0.0166952846952
1.38684347831
-1.38099479605
0.00817876391676
-0.0140274462093
1.42815507872
-1.42348350035
0.00654806493057
-0.0112196433268
1.46167042867
-1.45782123615
0.00480672804031
-0.00865592058871
1.48841007347
-1.48550904879
0.00348199031794
-0.00638301501661
1.50658748848
-1.50480349652
0.0022284541431
-0.00401244612769
1.51642840842
-1.51557850968
0.00082481301338
-0.00167471176664
1.52018786682
-1.51998515036
-2.5179648899e-05
-0.000177536827545
1.52015132041
-1.52025026209
-0.000359387449371
0.000458329100343
1.51958742845
-1.51959223981
9.73607698777e-05
-9.25494311951e-05
1.52071595504
-1.52042727325
0.00124354508879
-0.00153222689471
1.52487075595
-1.5241620204
0.00210913212294
-0.00281786768608
1.53273660222
-1.53153195901
0.00298008794641
-0.0041847311584
1.54470173348
-1.54298202161
0.00381296458076
-0.00553267646557
1.56060552565
-1.55842068039
0.00452860335334
-0.00671344860779
1.57980571137
-1.57725480301
0.00506438086132
-0.00761528920746
1.60141168921
-1.5986114366
0.00540063196652
-0.00820088456951
1.62450999756
-1.62156950523
0.00555699714791
-0.00849748949152
1.64832202981
-1.64532853749
0.00556911545677
-0.0085626077714
0.00640299994272
-1.17934090486
1.17935099791
-0.00641309305984
-1.07537427449
-0.0257195260874
0.0251443181682
1.07594948237
-1.08176014641
-0.0389300195736
0.0377926543453
1.0828975116
-1.09439296075
-0.0466236429159
0.0444828511601
1.09653375247
-1.11520477486
-0.0508097560877
0.0476259195361
1.11838861139
-1.1434696222
-0.0548707329833
0.0510167500648
1.14732360509
-1.17473870667
-0.0602305315444
0.0563169668583
1.17865227132
-1.20595860653
-0.063639625154
0.0597141691717
1.20988406248
-1.23802421016
-0.0634132827743
0.0592746830266
1.24216280988
-1.27173050151
-0.0605970801146
0.0563491213336
1.27597846027
-1.30512374117
-0.0565356594074
0.0524931716455
1.30916622891
-1.33632704266
-0.0509299569926
0.0472452261646
1.34001177347
-1.36400960702
-0.0437938145654
0.0406569644372
1.36714645713
-1.38673458778
-0.0352311510834
0.0327979646847
1.38916777416
-1.40350016695
-0.0255146235677
0.0238618011948
1.4051529893
-1.41397759057
-0.0154537823618
0.0145927292793
1.41483864363
-1.41806149551
-0.00635354092808
0.00629853532606
1.41811650109
-1.41582822963
0.000784351789699
-9.47425304574e-05
1.41513862036
-1.40827294053
0.00555952160235
-0.00433845973324
1.40705187864
-1.39762058679
0.0077517577932
-0.00634706012586
1.3962158891
-1.3868295816
0.006913719524
-0.00570204824375
1.3856179103
-1.37876324012
0.00257410163326
-0.00188083046129
1.37806996891
-1.37577001398
-0.005204957214
0.00512686958041
1.37584810159
-1.37969721368
-0.0154574229337
0.0143972623457
1.38075737424
-1.39210841999
-0.026617271444
0.0244118639676
1.39431382743
-1.41389199111
-0.0371390370698
0.0337597891596
1.41727123899
-1.44466776113
-0.0456280667615
0.0412217063292
1.44907412154
-1.48266493208
-0.0508212221006
0.0457009541985
1.48778519996
-1.52491280663
-0.0516830567228
0.0462809760429
1.53031488729
-1.5677798862
-0.0476014501876
0.0423868269847
1.57299450937
-1.60721516043
-0.0389593014049
0.0345391876693
1.61163527413
-1.63804683593
-0.0268406285241
0.0237798872169
1.6411075772
-1.65606158231
-0.0127707556085
0.0117102534927
1.65712208439
-1.6465853491
-5.75489334337e-05
0.00647945839062
1.6401634396
-1.55034688708
-0.0104013963653
0.0252828109316
1.53546547248
-1.48086444463
-0.0311490966251
0.0309654951334
1.48104804609
-1.50925281565
-0.0222650693161
0.0172712438154
1.51424664112
-1.53619530695
-0.00833872271205
0.00726563059763
1.53726839904
-1.53837990828
-0.00353243475535
0.00356583300948
1.53834650999
-1.5394695433
-0.00203801062328
0.00177614774053
1.53973140615
-1.54133618667
-0.00292018351991
0.00270524387603
1.54155112629
-1.54377492667
-0.00641584971333
0.00592657201697
1.54426420434
-1.54937395073
-0.0114611158731
0.0104688037786
1.5503662628
-1.55931434929
-0.017255181618
0.0156822701994
1.56088726069
-1.57396920429
-0.0229992751774
0.0208424253523
1.5761260541
-1.59305861108
-0.0279542333193
0.0252947146516
1.59571812973
-1.61572419546
-0.0316498562933
0.0286207434799
1.61875330825
-1.64083554941
-0.0339647794478
0.030710580049
1.64408974878
-1.66729808946
-0.0350766394737
0.0317193173798
1.67065541154
-1.69426847181
-0.0353091223049
0.0319316257949
1.69764596831
0.00692109436124
-1.37357817977
1.37368194915
-0.00702486379593
-1.31313244318
-0.0296913909382
0.0291836849577
1.31364014913
-1.31901409927
-0.0474836890579
0.0464222123394
1.32007557595
-1.32996914635
-0.0618099867645
0.060015433453
1.33176369962
-1.34704239006
-0.0730241612516
0.0704636044539
1.34960294682
-1.36982425679
-0.082116447428
0.0789446665631
1.37299603762
-1.39658730515
-0.0894812698402
0.0859468421151
1.40012173284
-1.42580541745
-0.0942466683312
0.0904488145197
1.42960327124
-1.45698230807
-0.0955675825927
0.0915539390127
1.46099595162
-1.48950003592
-0.0934090268515
0.0893119061443
1.49359715661
-1.52193275546
-0.0879667549152
0.0840145424602
1.5258849679
-1.55235270233
-0.0793147431335
0.0757481328386
1.5559193126
-1.57890444651
-0.0675535469728
0.0645938774669
1.581864116
-1.59991758041
-0.0530274040679
0.0508628359048
1.60208214855
-1.61407186143
-0.0364943223735
0.035257269548
1.61530891423
-1.62053576501
-0.01927071116
0.0190260202372
1.62078045591
-1.61905340291
-0.00306387600728
0.00379775058537
1.61831952831
-1.61008059052
0.0104045270677
-0.00881217145643
1.60848823489
-1.59501406762
0.0196913570975
-0.0174856169318
1.59280832744
-1.5762062865
0.0236578765663
-0.0211892596982
1.57373766962
-1.55669141941
0.0214933525855
-0.0191669664876
1.55436503331
-1.53974326549
0.0128781100082
-0.0111001106738
1.53796526613
-1.52851625837
-0.00174104434408
0.00259641863122
1.52766088405
-1.52582376491
-0.0209920218176
0.0206075816912
1.526208205
-1.53390755104
-0.0426928417668
0.0408462858699
1.5357541069
-1.55404554471
-0.0641482771199
0.0607713481153
1.55742247368
-1.58611257983
-0.0824856688649
0.0777062704738
1.59089197819
-1.62838902926
-0.0950111949858
0.0891518426017
1.63424838161
-1.67772540596
-0.0996094874713
0.0931444370736
1.68419045632
-1.72997210461
-0.095100428029
0.0885946366748
1.73647789593
-1.78043744972
-0.0814634203239
0.075522417581
1.78637845242
-1.8243007836
-0.0597330195886
0.0549414250596
1.82909237809
-1.85713296595
-0.0318563139382
0.0287208540563
1.86026842579
-1.87522343762
-0.000663919105389
-0.000405853722717
1.87629321041
-1.8755461536
0.0302486339411
-0.0288980429223
1.87419556254
-1.85659118395
0.0570432425399
-0.0535604384772
1.85310837985
-1.80365112621
0.0726705892567
-0.0577056778166
1.78868621473
-1.62520584071
0.026839872728
-0.00305838860024
1.60142435654
-1.51605353918
-0.0142349062881
0.0156865638585
1.51460188158
-1.53147494966
-0.00590987470315
0.00292304620673
1.53446177813
-1.54254465544
-0.00130171985489
0.00172145156685
1.5421249237
-1.53814343872
-0.00912073444203
0.00924127569993
1.53802289743
-1.54148821771
-0.0190130898105
0.0180466531287
1.54245465437
-1.55137697503
-0.0298449985059
0.0282640774081
1.5529578961
-1.56649801654
-0.040838361118
0.0385434930716
1.56879288456
-1.58709031853
-0.0501596272495
0.0472671329383
1.58998281282
-1.6117091414
-0.0568840376079
0.0536076750793
1.61498550391
-1.63869341662
-0.0608508890628
0.0573875157124
1.64215678996
-1.66661342015
-0.0625395141221
0.0590359814158
1.67011695285
-1.69454045328
-0.0626963575263
0.0592311011639
1.69800570965
0.00785245339156
-1.5055569391
1.50568534198
-0.00798085632113
-1.46365464635
-0.0341024562641
0.0335198467324
1.46423725585
-1.47004331594
-0.0561370855735
0.0550381941301
1.47114220735
-1.4809330432
-0.0757311457478
0.0740153490317
1.48264883988
-1.49695226218
-0.0924998897555
0.0901286933442
1.49932345856
-1.5180897821
-0.10642790571
0.103450474761
1.52106721302
-1.54374522771
-0.117405125932
0.113919275851
1.54723107776
-1.57313868386
-0.124990147585
0.121085415122
1.5770434163
-1.60559567327
-0.128514968935
0.124280159624
1.60983048255
-1.64022537286
-0.127402534515
0.122986281997
1.64464162533
-1.67556137541
-0.121215804214
0.116844914743
1.67993226487
-1.70956327361
-0.109663450872
0.105626918377
1.71359980609
-1.73979086383
-0.0928286285281
0.08944203146
1.74317746088
-1.7637816422
-0.0713079201652
0.0688614255566
1.76622813679
-1.77941125717
-0.046327061336
0.0450482842509
1.78069003424
-1.78517879489
-0.0198732244285
0.0198912946696
1.78516072463
-1.78047498564
0.00550304666646
-0.00418606782306
1.77915800678
-1.76579456258
0.0270445446936
-0.0245766502535
1.76332666812
-1.74284488329
0.042227408364
-0.0389045447779
1.73952201968
-1.71444863142
0.0490029446589
-0.0452448716924
1.71069055844
-1.68427000737
0.0460314392417
-0.042335865322
1.68057443341
-1.65642243895
0.0328493181004
-0.029742945504
1.65331606631
-1.63510752273
0.0100641125357
-0.00806186086444
1.63310527102
-1.62427528974
-0.0204819504726
0.0209238917227
1.62383334845
-1.62719690397
-0.0557194574732
0.054267360506
1.6286490009
-1.64589597671
-0.0915292141144
0.0880487629895
1.64937642779
-1.68056146939
-0.123212117202
0.117829662574
1.68594392397
-1.72923101555
-0.146235412114
0.139343662767
1.73612276486
-1.78799191741
-0.157059579806
0.149254587397
1.79579690977
-1.85164410147
-0.153703581203
0.145686006971
1.85966167566
-1.9144688983
-0.135882131124
0.128372428272
1.92197860111
-1.97078937045
-0.104805966303
0.0984929016006
1.97710243512
-2.01529810115
-0.0630454390551
0.0585521525088
2.01979138766
-2.04342330465
-0.0145084603363
0.0123202175956
2.04561154735
-2.05206283976
0.035822078626
-0.0354553469682
2.05169610806
-2.04014975089
0.0825247824635
-0.0796176918619
2.03724266025
-2.00849505046
0.120473571444
-0.1152010425
2.00322252147
-1.95977970579
0.145709356986
-0.139020110665
1.95309045943
-1.88865002201
0.153418535005
-0.136955161113
1.87218664809
-1.68807724188
0.0808380331559
-0.0514496951628
1.65868890386
-1.52126014212
-0.00110696584834
0.00902997048207
1.51333713745
-1.50871838838
-0.0183598003668
0.0153357458437
1.51174244287
-1.53085599575
-0.0240336355862
0.0224563755234
1.53243325579
-1.53901271407
-0.0416953820185
0.0406531313712
1.54005496469
-1.55289098741
-0.0606845589653
0.0580723590297
1.55550318731
-1.57702637118
-0.0750927002784
0.0717186885167
1.58040038291
-1.60533438805
-0.0849847561787
0.0812632727527
1.60905587145
-1.63566420438
-0.0900618867487
0.0862378975988
1.63948819351
-1.66596941642
-0.091520336457
0.0877961596515
1.66969359321
-1.69526411391
-0.0909318119343
0.087351115021
1.69884481083
0.00891977465385
-1.60562507333
1.60576270305
-0.00905740444165
-1.57394613694
-0.0389686049738
0.0383458039214
1.57456893794
-1.58062586766
-0.0650550025008
0.0639315601374
1.58174930997
-1.59157009914
-0.0893590371936
0.0876618417705
1.59326729453
-1.60729994689
-0.111191826538
0.108871536455
1.60962023693
-1.62807915949
-0.130078155804
0.127123047792
1.63103426746
-1.65387833236
-0.145595132475
0.142026402227
1.65744706256
-1.6844485483
-0.157199689002
0.153060479
1.68858775825
-1.7193527338
-0.164072981334
0.159437045105
1.72398866999
-1.75780054238
-0.165145419495
0.160151918486
1.76279404335
-1.79835408914
-0.159285456829
0.15417092131
1.80346862465
-1.83874758556
-0.145521604916
0.140628793635
1.84364039683
-1.87592632529
-0.123471006056
0.119225885799
1.88017144553
-1.90635289796
-0.0937441569312
0.0905947440421
1.90950231084
-1.92661630815
-0.0580893082291
0.0564187911319
1.92828682524
-1.934098864
-0.0194585732272
0.0195092483968
1.93404818882
-1.92750333795
0.018306544776
-0.0164846044596
1.92568139761
-1.90716979115
0.0509828277874
-0.0475539478572
1.9037409112
-1.8751275901
0.0746426522874
-0.0699718751128
1.8704568129
-1.83488796053
0.0860911929732
-0.0807039840332
1.82950075157
-1.79108138734
0.0832118174614
-0.0777460121933
1.78561558203
-1.74905143063
0.0651767850173
-0.0603289303232
1.7442035759
-1.71444227413
0.0325923575499
-0.029069375118
1.71091929166
-1.69279766022
-0.0122723447464
0.0138091590005
1.69126084593
-1.68900830777
-0.0652947341042
0.0643194803688
1.68998356147
-1.7064539787
-0.120484385966
0.116734127925
1.71020423671
-1.74594557181
-0.170536452857
0.164135865376
1.75234615925
-1.80500157883
-0.208182300204
0.19967197536
1.81351190362
-1.87811654528
-0.227845746031
0.218070285885
1.88789200538
-1.9580411579
-0.226692157436
0.216600488749
1.96813282654
-2.03726773825
-0.204519438246
0.195018902843
2.0467682736
-2.10883653591
-0.163027771819
0.15493955729
2.11692475038
-2.16646659694
-0.105390528762
0.0994527109507
2.17240441471
-2.20461996884
-0.0364544793846
0.0332873201378
2.20778712804
-2.21902162815
0.036917318248
-0.036917625372
2.21902193524
-2.20782818484
0.106333451642
-0.103190050934
2.20468478409
-2.17300261888
0.163920291192
-0.158142077286
2.16722440493
-2.11966833689
0.204231584466
-0.196561816248
2.11199856863
-2.05372028471
0.224520726513
-0.215668135301
2.04486769346
-1.98347652073
0.226618994882
-0.217986327194
1.974843853
-1.88176622722
0.195915689297
-0.17384008076
1.85969061864
-1.66242792706
0.0776895389068
-0.0502063100269
1.63494469814
-1.50714634411
-0.0260143832657
0.034071337756
1.4990893896
-1.49371306541
-0.0662149949899
0.0622665559075
1.49766150447
-1.53233050544
-0.0839185688127
0.0793014446455
1.53694762958
-1.56415193588
-0.103861323953
0.10021562839
1.56779763142
-1.59647347276
-0.118469624277
0.113928896496
1.60101420052
-1.63291306278
-0.122878161561
0.118500391338
1.63729083299
-1.66640522292
-0.122483084371
0.118506771987
1.67038153529
-1.69710593708
-0.120024999068
0.116353269849
1.7007776663
0.0100231227927
-1.68620941004
1.68634601137
-0.0101597241841
-1.66090044788
-0.0439863265873
0.0433609312587
1.66152584316
-1.66756110451
-0.0740196278748
0.0729073002355
1.66867343211
-1.67834169323
-0.102815075767
0.101149809045
1.68000695992
-1.69379199875
-0.129617792896
0.127329654329
1.69608013728
-1.71443640284
-0.153779378503
0.15081021887
1.71740556242
-1.74068705395
-0.17468704271
0.170994306629
1.74437978998
-1.77282034115
-0.191616029417
0.187177266851
1.77725910368
-1.81088990611
-0.203440435434
0.198275222336
1.81605511918
-1.85449117063
-0.208500437565
0.202709138731
1.86028246942
-1.90238699498
-0.204733713513
0.198550381863
1.90857032662
-1.95212376065
-0.190043976804
0.183874346659
1.95829339079
-1.99984565439
-0.163032066484
0.157451455624
2.00542626525
-2.04054487619
-0.123820219449
0.119500221133
2.0448648745
-2.06890357325
-0.0745975520829
0.072165103667
2.07133602165
-2.08051188476
-0.0196882593544
0.0195707012369
2.08062944286
-2.07293064132
0.0351107627913
-0.0327797646793
2.07059964319
-2.04620960483
0.0834222022447
-0.0788300188088
2.04161742139
-2.00284726312
0.11938760307
-0.112998779412
1.99645843944
-1.94734503567
0.138300488482
-0.13079140102
1.9398359482
-1.88565261192
0.13700336295
-0.129191836351
1.87784108527
-1.82465994124
0.114055455457
-0.106848868627
1.81745335436
-1.7718265058
0.0698150748057
-0.0641696745015
1.76618110545
-1.73485794162
0.00672866060298
-0.00360378623649
1.73173306721
-1.72117012547
-0.0700928918713
0.0698418584583
1.72142115884
-1.73666747749
-0.152269148217
0.148108278743
1.74082834692
-1.78364949834
-0.228460558235
0.220469568218
1.79164048831
-1.8588504376
-0.286778056818
0.275778558427
1.86984993593
-1.95370285664
-0.318455279314
0.305759605909
1.96639853
-2.05727786983
-0.320016761156
0.306982381367
2.07031224957
-2.15942011111
-0.292261907024
0.28002703164
2.17165498643
-2.25173561428
-0.237937623439
0.227465749784
2.26220748788
-2.32666937148
-0.160705691547
0.152936716661
2.33443834632
-2.37675896478
-0.0661798758881
0.0620049331078
2.38093390751
-2.3957961505
0.0365588221435
-0.0365759024284
2.39581323074
-2.38127673475
0.135258469042
-0.13115897184
2.37717723751
-2.3358556433
0.217226597402
-0.209715170721
2.32834421658
-2.26731469659
0.273621523052
-0.263956282849
2.25764945635
-2.18621683377
0.30191010098
-0.291372357573
2.17567909032
-2.10164048982
0.303849793456
-0.293387780986
2.09117847731
-2.02060169031
0.284182975942
-0.274825773936
2.01124448826
-1.94808000262
0.249211956044
-0.238164073858
1.93703212039
-1.8113199163
0.154647602738
-0.129976939025
1.78664925256
-1.61195567111
0.00323254623443
0.0174616918663
1.59126143298
-1.50523993064
-0.108793677696
0.112435408325
1.50159819998
-1.52365615043
-0.154668725634
0.146914644454
1.53141023159
-1.58881544743
-0.159998543245
0.153082675571
1.59573131508
-1.63346231971
-0.160276117098
0.155628827481
1.63810960931
-1.66966194304
-0.155367323304
0.151133573116
1.67389569322
-1.70099801303
-0.1493218733
0.145706294053
1.70461359228
0.0110820902463
-1.75363033326
1.7537559141
-0.0112076711452
-1.73253016789
-0.0488551645588
0.0482658164428
1.73311951598
-1.73880356524
-0.0826695819523
0.0816218385915
1.73985130856
-1.7489808195
-0.115795223814
0.114217009871
1.7505590334
-1.76371158021
-0.147585359102
0.145384507412
1.76591243186
-1.78378007694
-0.177405702735
0.174477766083
1.78670801355
-1.8100657076
-0.204630992459
0.200859330351
1.81383736967
-1.84348984408
-0.228430974001
0.223706067593
1.84821475045
-1.88486053739
-0.247388507685
0.241627959077
1.89062108595
-1.93456941171
-0.259142861764
0.252355832621
1.94135644081
-1.99197693567
-0.260352578391
0.252729600117
1.99959991395
-2.0546548037
-0.247117664371
0.239123985225
2.06264848283
-2.11776068694
-0.216069145078
0.208490726572
2.12533910543
-2.17410328344
-0.166020175381
0.159873153651
2.18025030516
-2.2153515123
-0.0993148756613
0.0956228595457
2.21904352841
-2.23421011742
-0.0222910845458
0.0217692428614
2.23473195909
-2.22647414369
0.0562352034758
-0.0533256980325
2.22356463824
-2.19185173408
0.126557536292
-0.120466609548
2.18576080734
-2.13373143538
0.180164345769
-0.171517210931
2.12508430054
-2.05809385019
0.210429999087
-0.200110663343
2.04777451447
-1.97261825465
0.212969351229
-0.202018952718
1.9616678561
-1.88603517173
0.185532192849
-0.175097919421
1.87560089824
-1.80784525462
0.127883643224
-0.119204764302
1.79916637565
-1.74833609694
0.0420118327118
-0.0364361099697
1.74276037414
-1.71861900286
-0.0667711629885
0.0678301159149
1.71756004986
-1.72939895738
-0.187569281831
0.18297497592
1.7339932632
-1.78682219391
-0.30253469977
0.292145291655
1.79721160195
-1.88675796895
-0.39084024801
0.376024583644
1.90157363325
-2.01438865668
-0.438180383138
0.42118682007
2.0313822197
-2.15310673641
-0.44241367657
0.424781893257
2.17073851967
-2.292853094
-0.407630710753
0.390765453079
2.30971835162
-2.41949631511
-0.33655651128
0.32234718121
2.43370564511
-2.51892837621
-0.232768
0.22305050931
2.52864586683
-2.57707635935
-0.104545264704
0.100035016304
2.58158660767
-2.59847676207
0.0376263071987
-0.0373241476319
2.59817460243
-2.57506109497
0.176415074435
-0.170261641527
2.568907662
-2.5090843019
0.290043455261
-0.27944927025
2.49849011684
-2.4142356677
0.365402689333
-0.352301131626
2.40113410996
-2.30630061403
0.399347150844
-0.385686999862
2.29264046301
-2.19926922103
0.397561582
-0.384722359548
2.18642999855
-2.10158161704
0.36813210755
-0.356836853443
2.0902863629
-2.01785549872
0.319470909818
-0.310180975899
2.00856556476
-1.9520287346
0.260011471447
-0.252534446928
1.94455171005
-1.87357186681
0.170914464803
-0.156103802898
1.85876120488
-1.72621286115
0.0162149463399
0.0042031048792
1.7057948099
-1.59000551481
-0.146619540321
0.156635551936
1.57998950318
-1.57129491185
-0.229047493946
0.222360285778
1.57798211999
-1.63988066624
-0.205955230971
0.198688463125
1.64714743406
-1.67964585746
-0.186827775786
0.183348282629
1.68312535061
-1.70756001661
-0.177314836079
0.173937821806
1.71093703088
0.0120138923586
-1.81154321482
1.81164695805
-0.0121176356848
-1.79325391428
-0.0532453180664
0.0527359814094
1.7937632509
-1.79869567946
-0.0905041046733
0.0895908574734
1.79960892662
-1.8076267006
-0.12768711423
0.12628969059
1.80902412421
-1.82080795897
-0.164376055784
0.162379436384
1.82280457834
-1.83929262289
-0.200150067582
0.197400236826
1.84204245362
-1.86444842142
-0.234604438451
0.230908355838
1.868144504
-1.8979874579
-0.26705898945
0.262175952327
1.90287049498
-1.94186934238
-0.295994173778
0.289684705511
1.9481788106
-1.99787528285
-0.318418193386
0.310501309185
2.00579216701
-2.06678902706
-0.329325877172
0.319848062843
2.07626684132
-2.14688624194
-0.321967833635
0.311403446053
2.15745062952
-2.23235282059
-0.289291309658
0.278710376896
2.24293375335
-2.31267792521
-0.227144704003
0.218131234748
2.32169139446
-2.37430142018
-0.137257986398
0.131559319749
2.38000008684
-2.40499107896
-0.0295321406297
0.028277450662
2.40624576894
-2.39798923304
0.0826190095693
-0.0789631700043
2.39433339347
-2.35281548607
0.183845556658
-0.175735981671
2.34470591109
-2.27487943201
0.262238772161
-0.250575300192
2.26321596004
-2.17244852472
0.308997001212
-0.29495077217
2.15840229561
-2.05543993647
0.318526949764
-0.303406967371
2.04031995402
-1.93464902575
0.287799935233
-0.272996878759
1.91984596922
-1.82145170197
0.21581320054
-0.202800649911
1.80843915127
-1.72840858864
0.102979977123
-0.0934991269122
1.71892773834
-1.6711187892
-0.047687980612
0.0513853065637
1.66742146315
-1.66919706162
-0.225058490641
0.22041554939
1.67384000274
-1.73977774815
-0.401273012667
0.387113498748
1.75393726195
-1.88508708305
-0.538794234269
0.517024823151
1.90685649407
-2.04599387985
-0.594267794298
0.576974198499
2.06328747557
-2.1750023453
-0.583486908034
0.568080417243
2.19040883603
-2.30022575571
-0.538142261051
0.521879661631
2.31648835508
-2.43603622705
-0.465357906697
0.447468653563
2.45392548011
-2.58281665252
-0.354165910385
0.335581130013
2.60140143283
-2.72652339773
-0.188491732619
0.172040492479
2.74297463778
-2.83646856246
0.0319433370134
-0.0406533949022
2.84517862027
-2.83942819167
0.256699627083
-0.243384062758
2.82611262728
-2.70420244651
0.398302495179
-0.381572761924
2.6874727132
-2.56375520222
0.492656598222
-0.474219971429
2.5453185754
-2.41585179808
0.527940516169
-0.50978844598
2.39769972786
-2.27680535627
0.514691839184
-0.498524137631
2.26063765469
-2.15653371652
0.468340647748
-0.454803043646
2.1429961124
-2.05777336804
0.400699827723
-0.389888505223
2.04696204552
-1.98057571941
0.320943867252
-0.312779678477
1.97241153061
-1.92439260618
0.235591444283
-0.229736773656
1.91853793554
-1.87202856121
0.132873589627
-0.123887452437
1.86304242399
-1.77629704585
-0.0269540388114
0.0417327188407
1.7615183658
-1.67039112758
-0.213609319416
0.221577917558
1.66242252942
-1.66123879834
-0.262562215342
0.25738731909
1.66641369457
-1.69701191942
-0.211071655412
0.20836097894
1.69972259588
-1.71675594944
-0.201072366128
0.198513077078
1.7193152385
0.0127277253647
-1.86225873188
1.86232881536
-0.0127978089745
-1.84576933467
-0.0567785927254
0.0563991649299
1.8461487624
-1.84985694893
-0.0968917672621
0.0961989088244
1.85054980731
-1.85671622282
-0.137591104433
0.136501347048
1.85780598016
-1.86717490407
-0.17879862501
0.177179990581
1.86879353846
-1.8824939076
-0.220512024806
0.218170426676
1.88483550567
-1.90450572872
-0.262832666954
0.259489302816
1.90784909279
-1.93578955685
-0.305708156057
0.300981331102
1.94051638176
-1.97980874965
-0.348050955054
0.341444583418
1.98641512124
-2.04070331334
-0.386725063587
0.377719765337
2.04970861153
-2.12216326756
-0.414971788214
0.403242310225
2.1338927455
-2.22495704425
-0.421752606039
0.407597948082
2.23911170221
-2.34309596392
-0.393156402641
0.377983689915
2.35826867667
-2.46122455832
-0.318553643085
0.304867753989
2.47491044744
-2.55578075347
-0.196093710967
0.187255863469
2.56461860102
-2.60518470848
-0.0447395204628
0.0422427751944
2.60768145379
-2.59966808847
0.116573989786
-0.11173557668
2.59482967539
-2.53892234141
0.260654291329
-0.249715969811
2.52798401991
-2.4337850872
0.372912473186
-0.35719007189
2.41806268592
-2.29570455069
0.442504325033
-0.423551494353
2.27675171997
-2.1374276049
0.462972186835
-0.442425062617
2.11688048063
-1.97209289255
0.431024504412
-0.41050266085
1.95157104894
-1.81232578729
0.34561373922
-0.326642861133
1.79335490915
-1.67068218159
0.204921743533
-0.189248936654
1.65500937466
-1.56479963721
0.00434685424292
0.00495852759938
1.55549425532
-1.52808858186
-0.256298367215
0.253412773826
1.53097417516
-1.58739962776
-0.518758486296
0.508568078388
1.59759003556
-1.70017260127
-0.680560847351
0.661597364854
1.71913608368
-1.86464356478
-0.737305740054
0.715733944108
1.88621536064
-2.04063524734
-0.733446622937
0.710725282359
2.06335658785
-2.22759079036
-0.700179855193
0.676066644364
2.25170400111
-2.42380810029
-0.638333357343
0.613439229646
2.44870222792
-2.62071888945
-0.525943312363
0.502310445429
2.64435175632
-2.79470055195
-0.334610331018
0.315960162764
2.81335072015
-2.91870050276
-0.0622798363845
0.0510674285747
2.92991291053
-2.97964421664
0.264278220322
-0.266842240822
2.98220823708
-2.94734890957
0.574759272694
-0.558098783764
2.93068842059
-2.7253872193
0.685180536406
-0.653965357518
2.69417204038
-2.50800502563
0.698917802493
-0.674780492227
2.48386771533
-2.32874051399
0.66157192218
-0.641457348789
2.30862594056
-2.18254414742
0.587552403706
-0.571596943246
2.16658868694
-2.06818789822
0.493863726452
-0.481605692392
2.05592986413
-1.98160989888
0.390626593578
-0.381551283604
1.97253458887
-1.91871936772
0.284265424382
-0.277895355832
1.91234929914
-1.87571283482
0.177766975723
-0.173322816141
1.8712686752
-1.83632060953
0.0529198960983
-0.0463945305829
1.829795244
-1.77179844203
-0.137174857782
0.14582117691
1.76315212289
-1.7237768491
-0.26821518419
0.270644641931
1.72134739135
-1.71617305335
-0.224736702348
0.223965655674
1.71694410002
-1.72620102126
-0.216835824317
0.215353236854
1.72768360872
0.0131286150275
-1.90733980249
1.90736453215
-0.0131533448185
-1.89186957101
-0.0590425792045
0.0588451076622
1.89206704247
-1.89404160747
-0.101098174701
0.100721153241
1.89441862882
-1.89788761505
-0.144384187066
0.1437513824
1.89852041963
-1.90419480414
-0.189245445442
0.188225443914
1.90521480559
-1.91426618987
-0.23625894681
0.234642100867
1.91588303571
-1.93019383758
-0.286405713401
0.283852655965
1.9327468949
-1.9553131204
-0.340841265443
0.336821067672
1.95933331809
-1.99476052231
-0.400040877758
0.393755874863
2.00104552515
-2.05594706744
-0.462087317391
0.452453201717
2.06558118305
-2.14803987811
-0.519608916909
0.505475705762
2.16217308922
-2.27852321776
-0.556061225555
0.53698106239
2.29760338095
-2.44687641501
-0.546520295534
0.523454901695
2.46994180885
-2.62645748085
-0.462373581042
0.440078679429
2.64875238255
-2.77482466043
-0.287350504819
0.273726827002
2.78844833823
-2.8524910197
-0.073265391312
0.0686417320488
2.85711467893
-2.84874543794
0.163530363902
-0.156592322661
2.84180739672
-2.76287051662
0.363592050491
-0.349215066738
2.7484935329
-2.61858413056
0.522168411291
-0.50097351721
2.59738923652
-2.43334950593
0.621735060163
-0.596393929189
2.40800837493
-2.22184234113
0.657367494146
-0.629913659848
2.19438850679
-2.00052172354
0.626239654708
-0.598640588383
1.97292265719
-1.7831716098
0.530309226719
-0.503859938721
1.75672232177
-1.57737613763
0.369084806263
-0.344420602639
1.55271193398
-1.39033393909
0.126562327409
-0.10536935439
1.36914096605
-1.22130215518
-0.196693328916
0.214483185813
1.20351229824
-1.2145148623
-0.636997670522
0.612891105592
1.23862142718