/*--------------------------------*- C++ -*----------------------------------*\
| =========                 |                                                 |
| \\      /  F ield         | OpenFOAM: The Open Source CFD Toolbox           |
|  \\    /   O peration     | Version:  2506                                  |
|   \\  /    A nd           | Website:  www.openfoam.com                      |
|    \\/     M anipulation  |                                                 |
\*---------------------------------------------------------------------------*/
FoamFile
{
    version     2.0;
    format      ascii;
    arch        "LSB;label=32;scalar=64";
    class       volScalarField;
    location    "1";
    object      epsilon;
}
// * * * * * * * * * * * * * * * * * * * * * * * * * * * * * * * * * * * * * //

dimensions      [0 2 -3 0 0 0 0];

internalField   nonuniform List<scalar> 
104960
(
2.249531271
0.169203989274
0.0644490380198
0.0449697675003
0.055289674681
0.0331590793983
0.0158744507862
0.0126048674864
0.0120115151743
0.0114807918179
0.0112576034128
0.0111094799687
0.0108928517517
0.0106721946649
0.0105005743069
0.0104229390189
0.0104823482814
0.0107044880048
0.0111248652992
0.0117714512343
0.0126641458707
0.013819320107
0.0168032887863
0.0234923460804
0.031001818624
0.0372872406782
0.0412224438764
0.042514080045
0.0417038449934
0.0395869262935
0.0367428874036
0.033651047545
0.0306790302308
0.0282705751861
0.0263137069458
0.0247203202695
0.0234500335135
0.0224646518146
0.0217202733488
0.0211717980057
0.0207768298574
0.0204985207114
0.0203075295339
0.0201809918781
0.0201019655107
0.0200575486411
0.020038049314
0.0200356881622
0.0200447366174
0.0200619631315
3.27541405425
0.277373796555
0.0947876143594
0.0466798608811
0.027903709131
0.0188312582918
0.0138130982295
0.0111049496473
0.0125359383029
0.0176602642716
0.0116307148697
0.011578276599
0.0105742039499
0.00999474677205
0.00963514760227
0.00930320721291
0.00901575514196
0.00876647239248
0.00856013436786
0.00839561494134
0.0082696830624
0.00817750530544
0.00811323632244
0.00807079518937
0.00804442441946
0.00802908180811
0.00802071464485
0.00801629601626
0.00801375189869
0.00801189507321
0.00801003609089
0.00800772003986
0.00800926290714
0.00800697370675
0.00800547731646
0.00800460061106
0.00800404368182
0.00800366776231
0.00800341124121
0.00800323914699
0.0080031220731
0.0080030354351
0.00800296279437
0.00800285891941
0.00800267133265
0.00800239175533
0.00800184653691
0.00800082653656
0.0079996459924
0.00799883817663
3.7499877707
0.3950642997
0.139472406364
0.068840253462
0.0407177508621
0.0269589318948
0.0192752325044
0.0145766243103
0.0115374885976
0.00968885494215
0.00951800313402
0.0124064015056
0.0105630989036
0.0107401528984
0.00976962706859
0.00937802088013
0.00908720669113
0.00883957262815
0.00862965278263
0.00845776998969
0.00832255229357
0.00822064788151
0.0081472585994
0.00809693668811
0.00806410679146
0.00804366660299
0.00803138113066
0.00802401346481
0.00801928084343
0.00801581710694
0.00801279522915
0.00800964604207
0.0080105953747
0.00800789444194
0.00800611501768
0.00800504204159
0.00800434713496
0.00800387257964
0.00800354425608
0.0080033189573
0.00800316212521
0.00800304579489
0.00800295122109
0.00800283150588
0.00800263317122
0.00800234678669
0.00800179752005
0.00800077630628
0.00799959723726
0.00799879216563
4.05155862065
0.47632805993
0.172231495351
0.0857473079149
0.0508038282349
0.033572644645
0.0239105253317
0.0179884761476
0.014116014802
0.0114722160515
0.00971531010244
0.00895880758974
0.0101307919262
0.0105647140079
0.0103666223968
0.00963565980613
0.0092233909357
0.00896373481984
0.00874707094565
0.00856356238764
0.00841362625469
0.00829603954243
0.00820764299787
0.00814399133154
0.00809989381084
0.00807034814799
0.00805096116457
0.0080382049996
0.00802946443558
0.00802305879058
0.00801790453302
0.00801322255073
0.00801307520131
0.00800960584656
0.00800729007434
0.00800584455696
0.00800489144936
0.00800423794032
0.00800378475839
0.00800347154391
0.0080032522767
0.00800309155181
0.00800296553968
0.00800282380922
0.00800261066029
0.00800231464269
0.0080017591583
0.00800073513468
0.00799955663509
0.00799875378682
4.26943566824
0.538375051645
0.197994944084
0.099275829504
0.0589802608623
0.0389936297308
0.0277491545495
0.0208438687589
0.0163238438692
0.0132186832146
0.0110221093813
0.00953655263309
0.00887993830972
0.00958212174847
0.010230633991
0.0101381784239
0.00953316254575
0.0091650776953
0.00892790117563
0.00872802385129
0.00855757991787
0.00841746813203
0.00830682225953
0.00822252430187
0.00816034257522
0.00811574069398
0.00808437963216
0.00806243151125
0.00804681666175
0.00803536241521
0.00802654882479
0.00801923802146
0.0080172162146
0.00801243773272
0.00800920732885
0.0080071303239
0.00800574648789
0.00800480225501
0.00800415300404
0.00800370702831
0.00800339740091
0.00800317494853
0.00800300675993
0.00800283621666
0.00800260389294
0.00800229539845
0.00800173156129
0.00800070314177
0.00799952421432
0.00799872288434
4.43834920993
0.588518856152
0.219216475452
0.110527908819
0.0658225628786
0.0435495503811
0.0309861567351
0.0232595211013
0.0181995463703
0.0147247835832
0.0122515511159
0.0104695395123
0.00929726332696
0.00886392731733
0.00949214113546
0.00981884718254
0.0101238590964
0.00952589962342
0.00920963757951
0.00897958119863
0.00878072566332
0.00860951356992
0.00846712016261
0.00835179555934
0.00826118235774
0.00819202563885
0.00814059225358
0.00810301414072
0.00807568049492
0.00805566592041
0.00804069628196
0.00802899357877
0.00802386592032
0.00801692924716
0.00801219605341
0.00800908984803
0.00800701743612
0.00800562144773
0.00800467820393
0.00800404086202
0.008003605969
0.0080033009135
0.00800307786732
0.00800287075983
0.00800261437605
0.00800229010152
0.00800171556302
0.00800068102502
0.00799950041001
0.00799869959938
4.57528984694
0.63053659799
0.23723569253
0.120132005752
0.0716720669437
0.0474425353463
0.0337473222196
0.0253160005073
0.0197945764764
0.016008785291
0.0133206619613
0.0113675104592
0.00997002953076
0.00913741280224
0.00891973654577
0.00947945354054
0.00977933170123
0.0102734807607
0.00968077292544
0.00937794512994
0.00913272093157
0.00891738147767
0.00872906472061
0.0085672803436
0.00843167207394
0.00832170899449
0.00823581868777
0.00817102598671
0.00812338598535
0.00808879814667
0.00806355786106
0.00804463283803
0.00803443609418
0.00802397193688
0.00801677692215
0.00801200229936
0.00800884484929
0.00800676410547
0.00800539387343
0.008004490311
0.00800388776819
0.00800347553828
0.00800318305102
0.00800293047428
0.00800264437475
0.00800230048418
0.00800171247765
0.00800066981
0.0079994859267
0.0079986842944
4.68980147319
0.666631349891
0.252857004928
0.128471686083
0.0767388566809
0.0507964148968
0.0361078582823
0.0270584825068
0.0211348012011
0.0170827563668
0.0142211531825
0.0121558223274
0.01066001445
0.00965192967234
0.00919290544146
0.00908390687927
0.0095664706197
0.0106509702302
0.0106259284825
0.0100622546233
0.00972107323314
0.00943033667563
0.00917042736866
0.00893722103356
0.00872865848704
0.00854795709779
0.00839999295582
0.00828589834858
0.00820215504268
0.00814255728739
0.00810034265167
0.00806974842629
0.00805125290937
0.00803500072896
0.00802370594585
0.00801618448004
0.00801131096697
0.0080082041803
0.008006230751
0.0080049693054
0.00800414934857
0.00800360235104
0.0080032230391
0.00800290854576
0.0080025826028
0.00800220472461
0.00800155750416
0.0080004759322
0.00799933281094
0.00799860698613
4.78778347847
0.69820852705
0.266604060355
0.135799141157
0.0811611999131
0.0536913293846
0.0381139450307
0.028510948421
0.0222289341797
0.0179452911503
0.0149451368606
0.0128157549922
0.0113075935615
0.0102861330449
0.00975340854367
0.00969227242957
0.0096900468043
0.0111071570335
0.0126917780631
0.0114778791978
0.0108330895917
0.0103590546574
0.00995721887629
0.00960372445005
0.00927087249442
0.00895922364574
0.008691259543
0.00848246888206
0.0083320597632
0.00822913875572
0.00815931764279
0.00811032843807
0.00807923401301
0.00805324621894
0.00803461744366
0.00802236487657
0.00801478369967
0.0080102041016
0.00800742404537
0.00800570525118
0.00800461518124
0.00800390297084
0.00800341951291
0.00800303738339
0.00800266662593
0.00800225839323
0.00800159006337
0.00800049421457
0.00799934186775
0.00799860996999
4.87315232586
0.726231647074
0.278845193278
0.142295724354
0.0850406185129
0.0561871042021
0.0398000307682
0.0296901427316
0.0230804115105
0.0185909233434
0.0154862676548
0.0133561949764
0.0119579029469
0.0111453340496
0.0108846704793
0.0115112689193
0.0145703248932
0.0343102866148
0.047985682578
0.0251740516052
0.0160727384312
0.0129505971374
0.0116457444958
0.0109312273217
0.0103430798439
0.00975592718802
0.00923057023567
0.00882509573441
0.00854516447311
0.0083673426607
0.00825491345812
0.0081767430628
0.00813030026595
0.00808626127684
0.00805216220408
0.00803106846575
0.00801922928448
0.00801264698692
0.00800886125057
0.00800659280627
0.00800518189519
0.00800427392181
0.0080036669
0.00800320436924
0.00800277997627
0.00800233517872
0.00800164160204
0.00800052830736
0.00799936356372
0.00799862271503
4.94866142506
0.751405777228
0.289861895004
0.148107452484
0.0884647777842
0.0583405735945
0.0412037940954
0.0306197892174
0.0237017643563
0.0190255218166
0.0158600570754
0.0138554481176
0.0131726188675
0.0157869985862
0.0877818770763
0.384640906065
1.00119386017
2.19003707375
1.43207817196
0.593042501641
0.183317554645
0.0563270018875
0.0247786214362
0.016249164655
0.0132054904629
0.0115152913641
0.0103016875187
0.00944445048274
0.00889272750711
0.00859951670956
0.00844640091458
0.00830734762604
0.00826688154723
0.00817089788845
0.00808422715512
0.00804321699838
0.008024479438
0.0080154143207
0.00801051121824
0.00800763152294
0.0080058555792
0.00800472107075
0.00800396971646
0.00800341290852
0.0080029251747
0.00800243697181
0.00800171379373
0.00800057985098
0.00799939931326
0.00799864657641
5.01634447711
0.774279501081
0.299887873984
0.153366595428
0.0915226952867
0.0602183420709
0.0423784218008
0.0313437521671
0.0241297422416
0.0192851110859
0.0161351161588
0.0148480868873
0.0238694548164
0.177382334101
3.15672724436
12.5030020006
27.3061246593
53.462961721
339.327396491
99.9596783055
13.9507686
1.38485036706
0.279977188867
0.105209312613
0.0398203220268
0.0185917610156
0.0130538319678
0.0108596692479
0.00965898873419
0.00929603628343
0.00924840100312
0.00891330636596
0.00902361089958
0.00867799763588
0.00818768427781
0.00805921888278
0.00802818644376
0.00801789029024
0.00801229865042
0.00800882413745
0.00800664277561
0.00800524873775
0.00800433066999
0.00800366471703
0.00800310345492
0.00800256499925
0.00800180863104
0.0080006521773
0.00799945336177
0.00799868273894
5.0777555566
0.795299526353
0.309129811025
0.158202852865
0.0943120333925
0.0619030220806
0.0433992222471
0.0319337648997
0.0244346684365
0.019446745526
0.0167663743642
0.0191362993154
0.247159453738
6.19319325801
39.3240606678
137.253688832
225.051887827
75.5139936432
77.8330453298
29.9537349485
8.07435193349
2.89313091589
0.481219157699
0.0651622889712
0.0293513269432
0.0341896416701
0.0202755228707
0.0235829486414
0.0307286883527
0.0291026233323
0.033939419442
0.0154081776634
0.00999425423735
0.0084602935682
0.00809056737857
0.00802703973404
0.00801485986406
0.00801023255411
0.00800755163907
0.00800585700582
0.00800474900265
0.00800396083464
0.00800331989026
0.00800272932053
0.00800193540358
0.00800074680761
0.00799951833264
0.0079987246822
5.13409474937
0.814837285856
0.317773719807
0.162743426511
0.0969371603465
0.0634901671397
0.044359981416
0.0324857229545
0.0247150359277
0.0196090362499
0.0172253300885
0.0787884819836
1.96993743044
187.296982087
63.836348892
74.4943731292
62.4646265684
27.634150528
4.71701309579
0.378939100135
0.187909885465
1.2615592496
1.1845752566
0.281996291393
0.0629729246747
0.0611993906586
0.0548206774884
0.0368478002187
0.0321630068258
0.0194170638188
0.0103153104633
0.00839731635831
0.00806940080983
0.00802095646387
0.00801206048714
0.00800860690714
0.0080065773854
0.0080052624256
0.00800432928246
0.008003581867
0.00800291340595
0.00800206972965
0.00800084916537
0.00799959197523
0.00799877315504
5.18630509305
0.833199823098
0.325981954102
0.167105352825
0.0994987258813
0.0650756520081
0.0453579977683
0.03310204276
0.025076731278
0.0198537575456
0.017732190782
0.0366061539452
146.532758606
63.3178615224
67.4802863997
30.9057168038
5.67727357564
3.07225283966
1.39266055039
0.648179052833
0.315712582683
0.498527104416
0.705797582063
0.307974428105
0.118650685546
0.0465251081688
0.0363952029705
0.0147125337734
0.010547331101
0.00860933902624
0.00813713470797
0.0080422268434
0.00802128544284
0.00801376408492
0.00800975898727
0.00800732905414
0.00800576837611
0.00800468259393
0.00800383545664
0.00800309930516
0.00800221243428
0.00800096099414
0.00799967332805
0.00799882654959
5.23510583853
0.850629889154
0.333883614735
0.171382431456
0.102077977565
0.0667373099008
0.0464723801173
0.0338656111599
0.0256028768372
0.0202215124885
0.0180258316144
0.035384305122
137.669913544
26.868231388
31.5792068235
39.4686924244
28.3103041204
4.96502705928
0.777906135541
0.236587571326
0.102743381079
0.273645853355
0.753372788243
0.484833605302
0.18009249997
0.133395244364
0.0550722912877
0.0261971555505
0.0173406146235
0.00992952160093
0.00834794503307
0.00807051294688
0.00802556474902
0.00801528645106
0.00801072990187
0.00800800764311
0.00800625078655
0.00800503098476
0.00800408994634
0.00800328828701
0.0080023602613
0.00800107935556
0.00799976038552
0.0079988836363
5.28102277093
0.867301281451
0.34156471463
0.17563254748
0.104721957195
0.0685177581987
0.0477439242343
0.0348163094719
0.0263339058977
0.0207414977747
0.0180928040354
0.0317273779144
0.480834727986
135.739539555
33.1609079983
37.482675054
54.5419186108
42.2620622724
14.5530245463
1.13655516662
0.104794136209
0.0341586803996
0.0353530664376
0.112383676382
0.110698260057
0.0551077418852
0.036267416633
0.0264001753306
0.0173769288469
0.011097734767
0.00883429592933
0.00819384498078
0.0080521501323
0.00802435633289
0.00801601349947
0.00801149079755
0.00800860116621
0.00800669296705
0.00800535908127
0.00800433406648
0.00800347217645
0.00800250702472
0.00800119961217
0.00799984982555
0.00799894201483
5.32441875585
0.883321621379
0.349065771371
0.179873380768
0.107439207482
0.0704208493437
0.0491730838068
0.0359525813624
0.027264962641
0.0214446699544
0.0179527149869
0.0196344026361
0.198572657334
170.723188598
155.281403058
106.34914327
42.643868397
59.8307131855
43.1440084418
9.65347728653
0.559105264112
0.0407080694241
0.0163591811592
0.0133868401151
0.0121918694471
0.0108731251384
0.0104677716008
0.0105462662096
0.00952456650682
0.0089386004943
0.00839896397158
0.00813381175613
0.00805653025348
0.00803438160562
0.00802365949405
0.00801669690208
0.0080121159559
0.00800910268728
0.00800708191215
0.0080056563838
0.00800456003252
0.00800364527457
0.00800264832309
0.00800131848259
0.00799993955286
0.00799900061657
5.36554412293
0.898745797928
0.356391774343
0.184091513246
0.110202953534
0.072407454466
0.0507074079217
0.0372066687079
0.0283241499911
0.0222986708669
0.0183016332395
0.0162848528616
0.0257637776138
0.293228792895
34.2298085519
206.669890202
375.106941754
275.398717386
361.022840432
187.702245864
115.720892657
49.3786739546
8.69035287552
0.500657874622
0.0343545679473
0.0149386011536
0.0120591701073
0.0108067616376
0.00998407652759
0.00933023646735
0.00893398771352
0.0086533025392
0.00845159986699
0.00833541928565
0.00818683616411
0.00809870069139
0.00805617991479
0.00803571566924
0.00802432496241
0.00801722209045
0.00801259426986
0.00800951094801
0.0080074115532
0.00800591589671
0.00800476175012
0.00800380272286
0.00800278016957
0.00800143277026
0.00800002745231
0.007999058306
5.4045672161
0.913585138829
0.363511910433
0.188239148805
0.112958483507
0.0744186924408
0.0522841121892
0.0385121709462
0.0294422775662
0.0232430709489
0.0189557642571
0.0161039336757
0.0145617925526
0.0214061190574
0.453611817054
2.13321008731
4.62063230051
4.99627007089
0.317052513523
0.206700237033
0.128736620373
0.0527293610151
0.0213266940803
0.0145361311609
0.0125691656358
0.0112843844115
0.0103608962907
0.00971787817044
0.0092482091714
0.00889252218438
0.00863530364623
0.00844317733076
0.00830912123978
0.00821339459144
0.00813723499532
0.00808515167084
0.00805390262673
0.00803565008205
0.00802459653139
0.0080175726335
0.00801295098521
0.00800983226297
0.00800768130382
0.00800613467705
0.00800493588637
0.00800394141215
0.00800289966341
0.00800153995298
0.00800011179296
0.00799911424698
5.44160005292
0.927838504637
0.370397767625
0.192276941699
0.115658878968
0.0764010485172
0.0538434777912
0.0398034127941
0.0305473737013
0.0241916609031
0.0197164446297
0.0165399641317
0.0143062053972
0.0127585627012
0.0117359592401
0.0115454885144
0.0121262218432
0.0115023375182
0.00985023509047
0.00952221273348
0.00982347964701
0.0102271710606
0.0104057415486
0.0103596914555
0.0101056636689
0.00974978118548
0.00939322726595
0.00908331568899
0.00882778256958
0.0086222994419
0.00846079856078
0.00833430949377
0.00824084617635
0.00816855231743
0.00811463426244
0.0080764190174
0.00805110857867
0.00803491747102
0.00802453587478
0.00801774017745
0.00801318695274
0.00801006905195
0.00800789126368
0.00800631116573
0.00800508029755
0.00800405929809
0.00800300489113
0.00800163831925
0.00800019148514
0.00799916815444
5.47673682056
0.941497265736
0.377019343111
0.196166467731
0.118260956325
0.0783082299435
0.0553371118292
0.0410305315084
0.0315873748167
0.0250818196765
0.0204595575197
0.0171047931186
0.0146313386457
0.0127778397909
0.0113637229875
0.0102820685672
0.00948197217761
0.00892820300433
0.00877417673547
0.00879378115628
0.00857597190531
0.00880817750475
0.00901198800865
0.00909697421597
0.00907789505303
0.00898220853761
0.00884722068581
0.00870255988401
0.0085658703942
0.00844522548788
0.0083428801035
0.00825794586412
0.00819289515147
0.00813916228848
0.00809836299177
0.00806862445054
0.00804783779442
0.00803370895565
0.00802418822944
0.00801773685257
0.00801331072684
0.00801022700645
0.00800804409454
0.00800644609142
0.00800519474489
0.00800415588033
0.00800309511712
0.00800172696874
0.00800026601435
0.00799922016532
5.51005912295
0.954558367261
0.383356717705
0.199882266982
0.120736756688
0.0801112348489
0.0567362082031
0.0421659736466
0.032535970603
0.0258841378421
0.0211320756638
0.0176471427466
0.0150349622323
0.0130365733036
0.0114793269973
0.0102587422035
0.00933406983347
0.00870758621847
0.00849928883234
0.00860414978837
0.00827107920286
0.00833581228408
0.00848362117463
0.00856908815694
0.00859963660101
0.00858497526964
0.00853784473515
0.00847191833326
0.0083991045678
0.00832751703558
0.00826168351873
0.00820361596998
0.00815797975422
0.00811749733567
0.00808572653155
0.00806189025734
0.00804458689975
0.00803228819891
0.00802364432908
0.00801759019726
0.00801333397746
0.00801031323456
0.00800814472072
0.0080065425308
0.00800528104705
0.0080042323156
0.00800317090015
0.008001806004
0.00800033558124
0.00799927090865
5.54165363034
0.967028609111
0.389403038165
0.203413174166
0.123073917518
0.08179796646
0.0580300869144
0.0432015165183
0.0333877017122
0.0265939844575
0.021722383911
0.0181283330727
0.0154120993572
0.0133142924734
0.0116632410965
0.0103522594784
0.00933673169304
0.00862636538322
0.00831862961192
0.00839879008127
0.00813790154186
0.00814648132039
0.00825360965173
0.00832380232387
0.00836113427665
0.00837155605334
0.00835953847998
0.00833076091669
0.00829186836158
0.00824868081125
0.00820542030417
0.00816480019654
0.00813231323385
0.00810114750257
0.00807581655486
0.00805626366626
0.00804161816371
0.00803083978593
0.00802300142516
0.00801734600602
0.0080132761015
0.00801033602611
0.00800819742092
0.00800660351656
0.00800534204249
0.00800429116461
0.00800323431584
0.00800187691994
0.00800040142191
0.00799932171054
5.57161429709
0.978925393925
0.395163194003
0.206760536437
0.125272894127
0.0833694082628
0.0592212740098
0.0441419372753
0.0341499594624
0.0272204251469
0.022237941716
0.0185478744039
0.0157454022705
0.0135691871743
0.0118464698505
0.0104678732608
0.0093841977869
0.00860522032727
0.00820962538283
0.00821798726149
0.00804745929693
0.00805670902036
0.00814385076926
0.00820172995096
0.00823600005768
0.00825295606699
0.00825467888158
0.00824334177951
0.00822241167059
0.00819565310849
0.00816636243774
0.00813709832961
0.00811349909871
0.00808883501199
0.00806809830417
0.00805167126706
0.00803904258692
0.00802948187499
0.00802233466946
0.00801704854791
0.00801316340278
0.00801031036013
0.00800821063716
0.00800663441619
0.00800538175543
0.00800433586327
0.00800328858403
0.00800194247359
0.00800046591271
0.00799937477868
5.60004180431
0.990275244278
0.400650664962
0.209934282779
0.127342678775
0.0848348384578
0.0603200607169
0.04499915042
0.0348363349494
0.0277780992332
0.0226929648048
0.0189170318528
0.0160403542936
0.0137989379614
0.0120182313573
0.0105862553629
0.00944968172367
0.00861610614189
0.00814971686661
0.00808041417381
0.00798099965393
0.00800934248302
0.00808841756497
0.00813832440189
0.00816799344941
0.00818526706569
0.00819189467178
0.00818863624554
0.00817721932727
0.00815997799477
0.00813933354898
0.00811745259654
0.00809983140787
0.0080796592028
0.00806217139597
0.00804800591223
0.00803688327284
0.00802827108769
0.00802168923089
0.00801672416825
0.00801301307815
0.00801025018761
0.0080081965944
0.00800664607158
0.0080054093137
0.00800437412186
0.00800333992819
0.00800200728873
0.0080005325456
0.00799943305074
5.62703748863
1.00111141074
0.405884931528
0.212949658611
0.129297080259
0.0862077279677
0.0613402769404
0.0457876036387
0.0354619129799
0.0282824302097
0.0231024233867
0.0192491454146
0.0163074911069
0.0140104700312
0.0121814468437
0.0107059432803
0.00952674094024
0.00864817189339
0.00812381816534
0.00798310052612
0.00793328642227
0.0079838540716
0.00806028724927
0.00810499569064
0.00813037630908
0.00814599221085
0.00815388707981
0.00815425535499
0.00814786886649
0.00813614361378
0.0081208370798
0.00810371703215
0.00809005613759
0.00807293497663
0.00805770226548
0.00804514296309
0.00803512302567
0.00802723241275
0.00802109876851
0.00801640038223
0.00801284487741
0.00801017213366
0.00800817107496
0.008006652861
0.00800543722319
0.00800441676613
0.008003397336
0.00800207836895
0.00800060647998
0.00799950044774
5.6527012422
1.01147179809
0.410890216288
0.215825674145
0.131152651251
0.0875034024341
0.0622966401925
0.0465217743507
0.03604103663
0.0287474529297
0.0234796577162
0.0195563111517
0.0165571132816
0.0142118888569
0.0123417619532
0.0108298056213
0.00961494271658
0.00869746552516
0.00812362936387
0.00791990459491
0.00790106810687
0.00797163487209
0.00804720973401
0.00808802812992
0.00810967208078
0.00812318437393
0.00813093501092
0.00813283432462
0.00812909216803
0.00812054640204
0.00810848490344
0.00809435772426
0.00808323659997
0.00806812387435
0.00805441243068
0.00804296521193
0.00803373219731
0.00802637649321
0.00802059130537
0.00801611278029
0.00801269379579
0.00801010678824
0.00800816012378
0.00800667729857
0.00800548486391
0.0080044794835
0.00800347296195
0.0080021647742
0.00800069447946
0.00799958196794
5.67713101793
1.02140846052
0.415701828933
0.21858829914
0.132929964825
0.0887394080061
0.0632049090012
0.0472162079342
0.0365873396197
0.0291859669553
0.0238364887512
0.0198491501298
0.0167984467177
0.0144108636917
0.0125051431086
0.0109619108867
0.00971622145364
0.00876365635551
0.00814562246577
0.00788751324429
0.00788390135849
0.00796886057651
0.00804286430801
0.00808021207409
0.0080987382632
0.00811037102379
0.00811758491122
0.00812006679855
0.00811767852378
0.00811090474062
0.00810072832292
0.00808837809788
0.00807878444991
0.00806490792073
0.00805215809983
0.00804143509653
0.00803273270035
0.0080257532503
0.0080202262487
0.00801592131722
0.00801261627412
0.00801010302878
0.00800820334279
0.00800675017665
0.00800557610621
0.00800458080954
0.00800358066223
0.00800227633616
0.00800080332154
0.00799968230894
4.40922550084
1.18700988789
0.462234658783
0.237547262452
0.142468899648
0.0942319769216
0.0666761062569
0.0495633968233
0.0382574405276
0.0304221421611
0.0247805004985
0.0205884064191
0.0173893877613
0.0148912064563
0.0129005194422
0.0112885648634
0.00997966604815
0.00895690698322
0.00825534043681
0.00792563951816
0.0080089615654
0.00813392920186
0.0082232793218
0.00830660087662
0.00838293700113
0.0084485536434
0.00849193865127
0.00850385877691
0.00848284772287
0.00843506013069
0.00837134764823
0.00830266076662
0.00824029866032
0.00818157485579
0.00813296125469
0.00809533978643
0.00806760453287
0.00804780728173
0.00803399105839
0.00802448259884
0.00801798027996
0.00801352267394
0.00801043975609
0.00800826466241
0.00800664678186
0.00800537340934
0.00800422432776
0.00800285328615
0.00800129571026
0.00800005169409
1.10763286531
3.29337403102
8.12523539642
0.135828967592
0.549281710825
0.612952358994
3.27975067647
9.62649286823
46.6236118559
24.5771671329
6.26435836568
6.09376427275
19.9426155529
52.9563238701
22.8053268641
190.992322416
260.196721499
19.0479656664
18.2961988602
61.1154876174
54.9036100229
56.0885374304
235.984580771
389.652330426
27.0152358449
38.5257380651
35.7805444959
184.633920501
0.991774721076
1.30073288946
6.79072036629
0.176412000585
0.822224871505
0.380892222007
16.7697233787
23.4280755052
14.420461342
148.926042581
68.6819176777
47.9561591711
63.5267423521
200.075861643
157.667694181
219.720338184
60.0383978936
204.566451773
236.983903233
267.953839506
0.181369480659
0.046493888215
0.668209973834
0.0614541164521
0.184490686457
0.0354827816329
0.241506685049
1.26501189083
1.11172564743
1.57703291941
209.857557313
236.975310646
297.709479602
328.265928546
148.647226435
171.593689376
98.006151983
193.887531359
151.004981429
190.642951128
113.763948065
0.14649309507
0.041344985112
0.425844608871
0.0366400422485
0.180867949801
0.0365872621867
0.185122781986
82.3223475903
162.843139417
54.3329665267
147.975398936
116.785118319
158.556270013
54.1678432002
0.110001258318
0.0389438793766
0.326374504174
0.0352765752844
0.112826731126
0.0346228983223
0.137815679345
74.5196650316
128.09671698
57.0007174731
141.021537799
61.5351396871
140.160914762
81.5821662999
0.117070785457
0.0229959862167
0.243726517682
0.0329168080473
0.0960742830114
0.0920991863395
0.155210922706
0.501153562273
0.719429247773
0.853485980686
210.504843935
145.1571898
336.663460583
119.115332733
118.345856799
174.648322531
104.999351671
196.338722023
94.9543986273
169.606800554
169.270478791
1.62181707383
0.0327907141278
0.996300711413
0.483132006345
2.41378193289
0.384129628233
0.771726773511
4.77791031407
15.8992414146
3.2654060102
24.0278106917
88.7356687004
114.274461303
79.4115240907
137.179035003
46.1448592875
109.102201054
127.039274365
188.387799846
33.913023524
108.74653597
277.456072583
6.57768276912
0.0298458438557
2.41044216609
1.37577399931
6.62916290917
0.385707979405
0.600032976494
114.316505004
1.77497126685
3.64292290774
8.33906091119
33.0173117179
5.77500776684
2.81813011884
149.406394546
7.37650891595
9.93046966512
19.4029665339
293.184485646
12.8550372597
8.61146311657
114.390748935
14.0196667095
25.21588663
50.0961551188
191.713327148
16.9153524692
14.2424266991
0.320994088474
0.0692518858887
0.0355372483237
0.0286776962746
0.0418649030078
0.03471015802
0.016023859168
0.0123717425399
0.0118648848422
0.011194988673
0.0108626614412
0.0105796269758
0.0102208751585
0.00985061130102
0.0094953505135
0.00917738359929
0.00889955118292
0.00866865909032
0.00848435169396
0.00834371586958
0.00824212361097
0.00817488679635
0.00823501832671
0.00849561751943
0.00887727293618
0.00923920693547
0.00946132964484
0.00950587246997
0.00940688362085
0.00921794377757
0.00899209096567
0.0087709031813
0.00858420917596
0.00843811068503
0.00832851609186
0.0082481686122
0.00819123599292
0.00815237675387
0.00812677406172
0.00811039337044
0.00810012307805
0.00809376702311
0.00808986454914
0.00808744163489
0.00808589019992
0.00808480599895
0.00808371863927
0.00808243466828
0.008081350106
0.0200788863865
0.996012258809
0.187217960675
0.0718522338276
0.0376621357194
0.0234712337953
0.0163543473466
0.0124286828412
0.0116483332202
0.0189329613807
0.0139768883438
0.0115682886052
0.0111996297295
0.010288681566
0.00990269020196
0.00954271323435
0.00922193614448
0.00894367512122
0.0087049656241
0.00850965626568
0.00835585194806
0.00823969944615
0.00815591858545
0.00809842758823
0.00806110956919
0.0080383595052
0.00802539861908
0.0080184708866
0.00801482039025
0.00801262880979
0.00801090419704
0.00800902025039
0.00800664757849
0.00800825545437
0.00800620187679
0.00800494926566
0.00800423367752
0.00800378974654
0.00800350377212
0.00800332097226
0.00800320772102
0.00800313448217
0.00800307966312
0.00800302501022
0.0080029160655
0.0080027158396
0.00800240054667
0.00800174356036
0.00800062920731
0.00799949894129
0.00799881369423
1.35108183049
0.281228241914
0.110280380176
0.057451802306
0.0351274039822
0.0237907410591
0.017296763549
0.0132577566406
0.0106673081995
0.00938963091619
0.0108922801778
0.0120713529636
0.0107556353037
0.0103487804668
0.00961408857928
0.00928688491874
0.00901004462224
0.00877194714701
0.0085723390991
0.00841110880196
0.00828612236647
0.00819338001215
0.00812769468144
0.00808341034264
0.0080550103825
0.00803763636418
0.00802735729158
0.00802121463622
0.00801719211134
0.00801413248648
0.00801128340345
0.00800821510071
0.0080093245255
0.0080069253342
0.00800543574575
0.00800455914338
0.00800400707448
0.00800364961547
0.00800342003742
0.00800327609534
0.00800318250001
0.00800311389538
0.0080030496803
0.00800293391535
0.00800272893448
0.00800241021154
0.00800175065497
0.00800063504426
0.00799950486411
0.00799882003467
1.5710204022
0.346356286713
0.13848499774
0.0726053087465
0.0443947394099
0.0299687735001
0.0216766312515
0.016502842168
0.0130760265937
0.010737988636
0.00929924875044
0.00910824939253
0.0111563659264
0.0101521338311
0.0102312075828
0.00944060180295
0.00913322086803
0.00888780579903
0.00868074678957
0.00850746302602
0.00836804958097