/*--------------------------------*- C++ -*----------------------------------*\
| =========                 |                                                 |
| \\      /  F ield         | OpenFOAM: The Open Source CFD Toolbox           |
|  \\    /   O peration     | Version:  2506                                  |
|   \\  /    A nd           | Website:  www.openfoam.com                      |
|    \\/     M anipulation  |                                                 |
\*---------------------------------------------------------------------------*/
FoamFile
{
    version     2.0;
    format      ascii;
    arch        "LSB;label=32;scalar=64";
    class       volScalarField;
    location    "1";
    object      k;
}
// * * * * * * * * * * * * * * * * * * * * * * * * * * * * * * * * * * * * * //

dimensions      [0 2 -2 0 0 0 0];

internalField   nonuniform List<scalar> 
104960
(
0.121244490192
0.0296611268903
0.0196109118776
0.0186639297061
0.0269617742035
0.0194490300564
0.0119128041109
0.0104809997348
0.0102470669465
0.00995525060821
0.00981780455029
0.00971331539404
0.0095593347641
0.00939749961285
0.00926034819517
0.00917358918044
0.00915983780583
0.00923276020532
0.00940892838169
0.00970130987466
0.0101191560598
0.010667571795
0.0118017768613
0.014087141186
0.0167477361275
0.019209810481
0.0210723364018
0.0221346596709
0.0224464092312
0.0221735190199
0.0214676993882
0.020493513769
0.0194086221408
0.0184171736906
0.0175250817297
0.0167395141855
0.0160734511428
0.0155296971689
0.0151002855322
0.0147709487076
0.0145248193688
0.0143451772126
0.0142174200284
0.0141292866304
0.014071104165
0.0140351522372
0.0140153754702
0.0140067444339
0.0140055088547
0.0140096254601
0.15521706996
0.0391291055879
0.0220579027378
0.0152238554094
0.0116734491698
0.0095608465305
0.00820488116637
0.00753413583622
0.00904117929837
0.0123840411424
0.00956703395134
0.00974639198461
0.00922680770156
0.00889938079372
0.00867824346361
0.00846220328784
0.00826956570428
0.00810120926841
0.00796052786748
0.00784734361606
0.00775988830233
0.00769520038293
0.00764954099434
0.00761892991821
0.00759954242328
0.00758798473406
0.00758149106101
0.00757796974135
0.00757598933805
0.0075747362621
0.00757367521426
0.00757231421547
0.00757267089217
0.00757111771867
0.00757006423091
0.00756942022302
0.00756899679439
0.00756870347494
0.00756849998022
0.00756836191716
0.00756826846182
0.00756820222284
0.0075681517486
0.00756810080307
0.00756806114462
0.00756807707598
0.00756798883588
0.00756750612899
0.00756676402
0.00756619285278
0.169245568
0.0486159733648
0.027817615672
0.0191394608227
0.0145265315027
0.0117153266331
0.00984587827408
0.00852814115092
0.00758391608028
0.00705997522332
0.00747786446933
0.0096237541522
0.00892905879451
0.00922504789713
0.00871008230063
0.00849135971478
0.00830944936167
0.00814675923077
0.00800576283444
0.00788883885834
0.00779585313575
0.0077249870768
0.00767331633673
0.00763738128259
0.00761355100741
0.00759843924576
0.00758918516089
0.00758356880032
0.00758002234483
0.00757761223964
0.00757570997691
0.0075737439346
0.00757366629876
0.00757180872334
0.00757054377665
0.00756975276922
0.007569226505
0.00756886054095
0.00756860509929
0.00756842934431
0.00756830827955
0.00756822173131
0.00756815638125
0.00756809471388
0.00756804768557
0.00756805864108
0.00756796690043
0.00756748242808
0.00756674052853
0.0075661705984
0.177713915053
0.0544731092875
0.0315655081094
0.0218016002844
0.0165452889584
0.0133148108331
0.0111530238099
0.00961985929546
0.0084870622941
0.00763801952676
0.00708482502212
0.00706721222802
0.00820647739374
0.00882998785958
0.00894504741738
0.00859989925289
0.00837908280843
0.00822241642435
0.00808173196063
0.0079591585781
0.00785751613287
0.00777680193024
0.00771533980443
0.00767047338577
0.00763894433135
0.00761751844002
0.00760328145052
0.00759384644501
0.00758743506988
0.00758290721743
0.00757946258573
0.00757638410298
0.00757550597662
0.00757308361002
0.00757142182009
0.00757035430164
0.00756963645173
0.00756913827007
0.00756879134205
0.0075685518641
0.00756838603372
0.00756826790494
0.00756818027002
0.00756810300332
0.00756804539051
0.00756804914816
0.00756795216101
0.00756746457807
0.00756672211136
0.00756615301867
0.183638441271
0.0586563475085
0.0343026166902
0.023776317552
0.0180636959197
0.0145341214983
0.0121634570235
0.0104773470829
0.00922825534017
0.00827567354929
0.00754935948099
0.00708227145311
0.00707473839886
0.00789827566972
0.00862382069748
0.00879577920898
0.00852889715363
0.00833779009793
0.00819633733559
0.00806739363629
0.0079541985283
0.00785964892332
0.00778392202305
0.00772541106877
0.00768165702138
0.00764987315915
0.00762728178315
0.00761135836747
0.00760004668196
0.0075918913929
0.00758580267399
0.00758081657882
0.00757857033406
0.00757518691987
0.007572850586
0.00757131587857
0.00757027905209
0.00756956583392
0.0075690744305
0.00756873763413
0.00756850588279
0.00756834283283
0.00756822447802
0.00756812617904
0.00756805446593
0.00756804871549
0.00756794472459
0.00756745269692
0.00756670883085
0.00756614004273
0.188127377675
0.0618836335491
0.0364426123513
0.0253322053425
0.01926710379
0.0155053010692
0.0129720598603
0.011166967692
0.00982845317812
0.00880683454501
0.0080132210079
0.00741367981296
0.00707302794216
0.00716828559678
0.00791359810386
0.00841458257479
0.00880294748845
0.00853122990527
0.00836834881107
0.00823025951822
0.00810241432995
0.00798942138093
0.00789383807034
0.00781520828424
0.00775250799312
0.00770400894933
0.00766752377069
0.00764063524105
0.00762100920466
0.00760672264956
0.00759619083024
0.00758801438588
0.00758349577124
0.0075785246695
0.0075750786121
0.00757278187737
0.00757123449649
0.00757018629805
0.0075694771573
0.00756899884235
0.00756867452174
0.00756845035485
0.00756829126228
0.00756816569282
0.00756807590351
0.00756805795901
0.00756794505308
0.00756744719108
0.00756670095029
0.00756613174582
0.191703197444
0.0644947628092
0.0381892265683
0.0266066296766
0.0202541097895
0.016301830316
0.0136347127493
0.0117316908347
0.0103200890045
0.0092442267643
0.00840926200581
0.00776090922731
0.00729888089097
0.00712010488352
0.00732586136018
0.00799671720565
0.00845062189018
0.00892561562805
0.00864377541428
0.00848232025328
0.00833289940276
0.00819497061978
0.00807154928604
0.00796353300947
0.00787139894264
0.00779550488447
0.00773542558561
0.00768960753127
0.00765566524898
0.00763097826517
0.00761303566374
0.00759959726286
0.00759135189854
0.00758377382816
0.0075785028388
0.00757496668323
0.00757261187621
0.00757105355458
0.00757002611108
0.00756934913268
0.00756889947251
0.00756859492148
0.00756838349094
0.00756822349052
0.00756811106286
0.00756807785086
0.00756795384946
0.00756744862006
0.00756669886599
0.00756612832438
0.194651459237
0.0666762600418
0.0396565951951
0.0276777565204
0.0210816043411
0.0169665219593
0.0141841273667
0.0121965146429
0.0107221623899
0.00960117482115
0.00873662747816
0.00806847331872
0.00757076245868
0.00727834614481
0.00730221306755
0.00756177784002
0.00815603814076
0.00905063725241
0.00918344135449
0.00890421570677
0.00871134658459
0.00853227141631
0.00836684975018
0.00821506692969
0.00807638082301
0.00795387221458
0.00785189318185
0.00777215478462
0.00771295250764
0.00767048501964
0.00764028522123
0.00761830213063
0.00760394544318
0.00759205954991
0.00758372923672
0.00757814223255
0.00757450454525
0.00757217788829
0.00757069759768
0.00756975107504
0.0075691371635
0.0075687303236
0.00756845338438
0.0075682507146
0.00756811778332
0.0075680680477
0.00756789495628
0.00756733964648
0.00756660013218
0.00756607772839
0.197144824839
0.068541589805
0.0409151046501
0.0285942541708
0.021785245192
0.0175262048024
0.0146405625727
0.0125763791792
0.0110452321944
0.00988483085681
0.0089991537612
0.00832960086735
0.00784344705818
0.00754408017138
0.00750411444118
0.00776660717044
0.00807760262016
0.00904880250082
0.0101626664641
0.0097112610455
0.00940208827154
0.0091290760852
0.00888289976663
0.00866024961164
0.00844498394396
0.00823836005702
0.0080569144077
0.00791294790123
0.0078075624676
0.0077344530537
0.00768429944598
0.00764875161074
0.00762494475717
0.00760576513399
0.00759195596562
0.00758282464284
0.0075771485817
0.00757370782741
0.00757161487206
0.00757031979953
0.00756949951008
0.00756896620048
0.00756860946914
0.00756835508671
0.00756818804461
0.00756811522432
0.00756792590787
0.00756735944997
0.00756661267991
0.00756608547892
0.199295770275
0.0701653922519
0.042011827334
0.0293891778758
0.0223896333379
0.0179996508134
0.0150182944864
0.0128816968505
0.0112963018086
0.0100998332629
0.00920209550072
0.00855652257683
0.00814288022412
0.0079633819181
0.0080637298013
0.00857874637601
0.00955256167785
0.0139287815741
0.0176457442077
0.0126706843859
0.0109013316366
0.0102952601208
0.00986211279897
0.0095063549814
0.00915397105107
0.00877841239388
0.00843138563694
0.00815680676934
0.00796301744317
0.00783742413567
0.00775651232214
0.00769936245602
0.00766343703913
0.0076306181945
0.00760525748503
0.00758947256344
0.00758056337994
0.00757559065432
0.00757272394993
0.00757100455338
0.0075699364546
0.00756925222235
0.00756880057994
0.00756848478223
0.00756827703177
0.00756817658837
0.00756796827187
0.00756738881887
0.0075666329274
0.00756609913683
0.201182022678
0.0716001427683
0.0429807858585
0.0300872328886
0.0229139811397
0.0184023680208
0.0153300010228
0.0131226597032
0.0114833310409
0.0102534306488
0.00935940256935
0.00879684093611
0.00872659556528
0.00959685083221
0.0210483205691
0.0649421185717
0.160763358353
0.353039921266
0.285399457309
0.147850809053
0.0576543038395
0.0233525114741
0.0140267811871
0.0116192181067
0.0106857185193
0.0098815582738
0.0091507036247
0.00859135034385
0.00821715668258
0.00801264475867
0.00790257205908
0.00780165474052
0.00776594648198
0.00769423460971
0.00763000799618
0.00759894361172
0.00758466593111
0.00757774797157
0.00757400305373
0.00757180376193
0.00757045068314
0.00756959106475
0.00756902872289
0.00756864128632
0.00756838579533
0.00756825288919
0.00756802282703
0.00756742873463
0.0075666618607
0.00756611968164
0.20286005626
0.0728850074429
0.0438484790596
0.0307088221293
0.0233754429327
0.018749628011
0.0155897978353
0.0133125892418
0.0116192284789
0.010360862784
0.00950537399653
0.00927228489711
0.0120127214633
0.0379524094672
0.339969287164
1.14182457514
2.26851128307
4.16545416706
35.310272976
13.0481434291
2.39196844566
0.337496067919
0.0954056560898
0.0436505818676
0.0206503144797
0.012975941909
0.0106940602273
0.00950205797114
0.00875192248006
0.00851839049247
0.00849804591452
0.00826230971434
0.00831171087626
0.00804883520209
0.00769903419654
0.00760755496447
0.0075866337488
0.00757953875286
0.00757537506416
0.00757271606803
0.00757104493571
0.00756998424164
0.00756929466824
0.00756882501724
0.00756851466066
0.00756834463324
0.00756809080292
0.00756748151292
0.00756670244494
0.00756614792025
0.204372370855
0.0740505827948
0.0446368250505
0.0312721522758
0.0237907391848
0.0190579137587
0.0158147462384
0.0134696565738
0.0117238057275
0.0104471466976
0.00978324154616
0.0109821538929
0.0562085935827
0.657177918411
6.491451194
19.738145067
32.5588834726
18.6138264331
16.4146303117
6.29914281625
2.10243687113
0.887368343621
0.167164435962
0.0297977264339
0.0183636810482
0.0225944635283
0.0154556109926
0.0179451757651
0.0223620320993
0.0211771075105
0.0237292633606
0.0125438254204
0.008961617935
0.00789154212874
0.00763080172448
0.0075860501192
0.00757728367933
0.00757378026117
0.00757172255516
0.00757043030733
0.00756959706944
0.00756903642183
0.00756866720218
0.00756845890311
0.00756817867216
0.00756754820249
0.00756674960329
0.00756617933803
0.205751370228
0.0751213561637
0.0453644022917
0.0317937504791
0.0241762399297
0.0193446256821
0.0160242170249
0.013615908045
0.0118216541396
0.0105382067024
0.0100385522978
0.0289611985934
0.329391762912
29.8887033292
17.5447444054
17.7595790727
13.6807658545
6.9061961118
1.37810910584
0.145251855086
0.10352941203
0.534230400254
0.554681158324
0.154897054449
0.0430430762687
0.0437068807652
0.0398215543051
0.0273410067833
0.02333577104
0.0150756833463
0.00918928553506
0.00785431728879
0.00761701568998
0.00758166891007
0.00757511422262
0.00757249491131
0.00757095015649
0.00756996251098
0.0075692956993
0.00756884902554
0.00756858436973
0.00756826945848
0.00756761858493
0.00756680169879
0.00756621446317
0.207022228134
0.0761169467838
0.04604669303
0.032287997622
0.0245468215337
0.019626215333
0.0162371465813
0.0137733998849
0.0119365916963
0.0106464889788
0.0102900172212
0.0174848280535
19.3500457901
15.3135319572
14.6980952624
6.96354354506
1.66451998921
1.12524748002
0.588151680036
0.30118949062
0.164092580305
0.26272065992
0.364464918595
0.178711664094
0.0773264267294
0.0336187747578
0.0262384185164
0.0124895183472
0.00946887604708
0.00803597407765
0.00767174450602
0.00759818636081
0.00758217899867
0.00757641194048
0.00757333605232
0.00757148841817
0.00757032011701
0.00756954213165
0.0075690225888
0.00756870846678
0.00756836369167
0.00756769393119
0.0075668581571
0.00756625224056
0.208204019595
0.0770525673989
0.0466956807592
0.032766031857
0.0249140257182
0.0199154649132
0.0164681999581
0.0139589723965
0.0120854603569
0.0107686741036
0.0103963154807
0.0171292935006
17.5399492991
6.57594451031
7.84738231699
9.38019092281
6.34294245527
1.29357988003
0.26655540227
0.102679673182
0.0546265468806
0.150833317226
0.380531426922
0.2536718474
0.105000940702
0.0785508372301
0.0377992795946
0.0201671073477
0.0139038106392
0.00894594052006
0.00782216463825
0.007618344467
0.00758514373447
0.00757748267811
0.00757402615696
0.00757196754114
0.0075706573895
0.00756978270923
0.00756919471791
0.00756883255598
0.00756845951268
0.00756777248919
0.00756691782552
0.00756629203204
0.209310684693
0.077939105644
0.0473193671143
0.033234689851
0.0252843843142
0.0202190672682
0.0167244398772
0.0141800328949
0.0122760029719
0.0109077892627
0.0103424220972
0.0157203965251
0.127075106381
17.6928726036
8.95694797777
11.3980390826
14.3669176147
11.022228188
3.57374977078
0.32478953993
0.0407063134487
0.0190187558448
0.0219839876892
0.0651269092541
0.0677092213021
0.0372492841072
0.0257566397265
0.0197902643487
0.0139861583081
0.00974454339954
0.00816048397991
0.0077033525208
0.00760319168864
0.00758392289161
0.00757793304013
0.0075745482435
0.00757237844385
0.00757096240747
0.00757000674654
0.00756935771376
0.00756895112184
0.00756855271425
0.00756785102481
0.00756697832907
0.00756633207635
0.210351932081
0.078783534983
0.0479218408436
0.0336963278018
0.0256591689675
0.0205374627419
0.0170055110284
0.0144357711144
0.0125076397475
0.0110815409558
0.0102462099287
0.0111843350378
0.0544979384604
3.67815262418
21.946828758
19.5775799319
11.1755705529
14.6558944146
10.6190805151
2.38673053234
0.157712042322
0.0189476124532
0.0119298269667
0.0108104088667
0.0102345122379
0.00951972880355
0.0093548164834
0.00944791337377
0.00871279627822
0.00826426688951
0.00785760314901
0.00766063593017
0.00760618536044
0.00759133423582
0.00758365506726
0.00757842859055
0.00757497226848
0.00757271855073
0.00757122669636
0.00757020743001
0.00756950672596
0.00756906079016
0.00756864073035
0.00756792759254
0.00756703843594
0.00756637180678
0.211334558006
0.0795898232514
0.0485042848833
0.0341500369531
0.0260350696939
0.020864381466
0.0173013698623
0.0147115199497
0.012764727427
0.0112932813593
0.010259882209
0.00985515571258
0.0132811026224
0.0604449564565
1.60255729838
7.79383780357
17.1340031908
30.0740855841
40.8636715114
27.4403788918
20.6660446866
10.2297928667
2.01939613872
0.135506577865
0.0173073357247
0.0115860226776
0.0101884339159
0.00944761015276
0.00893325927604
0.00851054266893
0.0082457890858
0.00805166599376
0.00790653019988
0.00781833909175
0.00770814053101
0.00764101139388
0.00760836753179
0.0075927460174
0.00758410640076
0.00757874541007
0.00757527674777
0.00757298742915
0.00757144681543
0.00757038042139
0.00756963798937
0.00756915865238
0.00756872116705
0.00756800018606
0.00756709678059
0.00756641049516
0.212263264821
0.0803594801296
0.049064951425
0.0345912294462
0.0264051343923
0.0211906508789
0.0176006100907
0.0149938621058
0.0130327200225
0.0115322459982
0.0104011115459
0.00962471564045
0.00928283769806
0.0115835325723
0.079139295731
0.276770042749
0.571009187253
0.667648186842
0.0821448948351
0.0627376865992
0.0440246048547
0.0223452101749
0.0132605596265
0.011349532928
0.0104546467326
0.00970469153179
0.00913740753932
0.00873230149386
0.00843009724778
0.00819607665268
0.00802251285096
0.0078894725995
0.00779338717081
0.00772391731891
0.00766815260969
0.00762954907347
0.00760616239767
0.00759245725105
0.00758416821073
0.00757892162774
0.00757548979007
0.00757319220174
0.00757162350235
0.00757052435971
0.007569749753
0.00756924308777
0.00756879243293
0.0075680672657
0.00756715221384
0.0075664475553
0.213141312636
0.0810933347287
0.0496024002292
0.0350164852832
0.0267638484185
0.0215084508985
0.0178928957706
0.0152697730925
0.0132955268787
0.0117755006948
0.0105970940395
0.00969633943622
0.00903490778894
0.00857832471554
0.00830073640271
0.00826930566268
0.00843668247375
0.0083367932971
0.00810411752376
0.00827182415684
0.00862003842119
0.00896294707042
0.00911979365992
0.00910820181007
0.00895412950317
0.00873127732602
0.0085048773276
0.00830559015371
0.00813902130901
0.00800291527948
0.00789395109183
0.00780695242293
0.00774059533251
0.00768909475142
0.00765017119629
0.00762227642871
0.00760364559433
0.00759167180985
0.00758398706296
0.00757896627152
0.00757561621831
0.00757333666054
0.00757175800016
0.0075706388667
0.00756984105555
0.00756931315675
0.00756885357613
0.0075681278225
0.0075672040069
0.00756648276761
0.21397146461
0.0817917412509
0.050115015593
0.0354224617314
0.0271062065309
0.0218111580618
0.0181700503035
0.0155295542062
0.0135414014359
0.0120051886183
0.0107994308619
0.00984677512741
0.00909302933503
0.00849532143674
0.00802198267883
0.00766466429391
0.00743660212313
0.00734518261323
0.00749166388607
0.00772868309229
0.00777312081248
0.00803512549824
0.00822080857917
0.0082946953848
0.00828735951397
0.00822706219843
0.00814039418211
0.008046611625
0.00795705641535
0.00787701571295
0.0078081667915
0.00775021809115
0.00770434766562
0.00766657199187
0.00763747068119
0.00761601783287
0.00760090520916
0.00759058321118
0.00758361408751
0.00757889443231
0.00757566536554
0.00757342672275
0.0075718532821
0.00757072511964
0.00756991222012
0.00756936894729
0.00756890442657
0.00756818137868
0.00756725178357
0.00756651614636
0.214756124358
0.0824552777135
0.050601933146
0.0358071604368
0.0274292096819
0.0220948971632
0.0184275128788
0.015768152299
0.013764584337
0.0122126519663
0.0109865758107
0.0100044189696
0.00920899033627
0.00855790219773
0.00802158920881
0.00759012306743
0.00728309849864
0.00713944027062
0.0072537601555
0.00755695267809
0.00754757562638
0.00771551274878
0.00786966112869
0.00794465704248
0.00796942479035
0.00796131321176
0.00793137062073
0.00788874891117
0.00784111125814
0.00779372493
0.00774965148535
0.00771036293558
0.00767831481682
0.00765018220534
0.00762775981998
0.00761073632027
0.00759828305086
0.00758938821855
0.00758312108058
0.0075787300664
0.00757564815982
0.00757346902822
0.00757191375265
0.00757078579307
0.00756996482314
0.00756941150358
0.00756894554116
0.00756822801104
0.00756729554095
0.00756654794447
0.215497759469
0.0830849504202
0.0510632318729
0.0361700063329
0.0277318296486
0.0223583710948
0.0186639447478
0.0159844315591
0.013964150239
0.0123962338027
0.0111524387741
0.0101487562746
0.0093270961162
0.00864549982677
0.00807476832403
0.00760260680286
0.0072456158298
0.00705055002728
0.00710595745351
0.0074018152074
0.00744716737926
0.00758549362719
0.00771491236671
0.00777988322753
0.00780898425122
0.00781719389024
0.00781014784881
0.00779186097331
0.00776661573322
0.00773819052904
0.00770941779758
0.00768217626436
0.00765939862677
0.00763796467753
0.00762024910062
0.0076064008456
0.00759594833107
0.00758821799274
0.00758258021251
0.00757850840295
0.00757558028702
0.00757347063463
0.00757194304952
0.00757082325568
0.00757000089041
0.00756944260351
0.00756897832888
0.00756826862071
0.00756733589818
0.00756657882409
0.216198955946
0.0836822340871
0.0514998172226
0.0365116311156
0.0280146038323
0.0226022090043
0.018880274827
0.0161798102895
0.0141420905464
0.0125581089593
0.0112979540731
0.0102764419325
0.00943501368997
0.00873185710661
0.00813770205962
0.00763845339529
0.00724739680368
0.00701266945376
0.00701589991515
0.00727214292492
0.00738017798779
0.00752308138344
0.00764060561933
0.00769741478361
0.0077243620026
0.00773676499964
0.00773866803697
0.00773181720127
0.00771844296951
0.00770098687794
0.00768166230621
0.0076622211024
0.00764566129877
0.00762885838301
0.00761446771887
0.00760291305241
0.00759396165807
0.00758715184314
0.00758204506661
0.00757826199317
0.00757548128936
0.00757344258509
0.00757194715081
0.00757084100007
0.0075700228309
0.00756946426361
0.00756900470854
0.00756830477869
0.00756737410523
0.00756660992756
0.216862407029
0.084248986938
0.0519131697195
0.0368334557672
0.0282790649561
0.0228282048112
0.0190787003421
0.0163570392047
0.0143017397175
0.0127019862743
0.0114266099104
0.0103896140129
0.00953208168869
0.00881219102085
0.00820049900091
0.00768155897644
0.00726578232406
0.00700049304317
0.00696139423192
0.00717248407238
0.00733009875253
0.00748910333101
0.00760276042118
0.00765447926759
0.00767830496737
0.00769081043052
0.00769585050165
0.00769426486435
0.00768715992266
0.00767604438149
0.00766255029687
0.00764815771166
0.00763575539579
0.00762212994711
0.0076100732078
0.00760016500172
0.00759232484827
0.00758622461946
0.00758154633162
0.00757800936036
0.00757536315251
0.00757339420892
0.00757193385282
0.0075708456628
0.00757003606119
0.0075694810239
0.00756902833926
0.0075683391107
0.00756741202938
0.00756664280573
0.21749077428
0.0847873288251
0.052305145368
0.0371373569853
0.0285272667919
0.0230386925048
0.0192619394899
0.0165192758626
0.0144466944564
0.0128317921029
0.011542357565
0.0104917418175
0.00962069935171
0.00888731058511
0.00826192548764
0.00772799730918
0.00729329832288
0.00700322115634
0.00692905199541
0.00709776765972
0.00729140686949
0.00746915390497
0.00758310862078
0.00763186798757
0.00765285741531
0.00766417718741
0.0076699608633
0.00767070142557
0.0076668896291
0.00765943481287
0.00764952821171
0.00763837836754
0.0076287178557
0.00761723977057
0.00760679429698
0.00759804814657
0.00759101516154
0.00758544883149
0.00758110500176
0.00757776788777
0.00757523782657
0.00757333511258
0.00757191210497
0.00757084529026
0.00757004752478
0.00756949895743
0.00756905433837
0.00756837558217
0.00756745249812
0.00756667956343
0.218086642751
0.0852995385187
0.0526778778747
0.0374255095016
0.0287615260004
0.0232362005721
0.0194327792355
0.0166695990153
0.0145803169183
0.0129510884693
0.0116487899253
0.0105861952922
0.00970372522242
0.00895929807936
0.00832302557947
0.00777738248142
0.00732754794431
0.0070161766838
0.00691162567097
0.00704259502501
0.00726097020601
0.00745711957754
0.00757331736858
0.00762029691315
0.00763890016573
0.00764876557537
0.0076543761465
0.00765606689303
0.00765396857557
0.00764861301286
0.00764087914443
0.00763175995599
0.00762385047845
0.00761377903361
0.00760441392535
0.00759646562875
0.00759000185373
0.00758482468878
0.0075807347814
0.00757755715529
0.00757512486899
0.00757328218746
0.00757189610509
0.00757085215097
0.00757006788093
0.00756952676272
0.0075690895099
0.00756841926183
0.00756749925173
0.00756672292684
0.218652512356
0.085788505961
0.0530342309714
0.0377006951948
0.0289845856851
0.0234235223194
0.0195941261924
0.0168110471101
0.0147057718828
0.0130631216148
0.0117491298793
0.0106760342369
0.00978391279589
0.00903046010496
0.00838550180235
0.00783058196291
0.00736826476369
0.00703777088159
0.00690570652598
0.00700410689029
0.00723811103724
0.00745037430847
0.0075691179909
0.00761486517429
0.00763156799273
0.00764016081214
0.00764536458306
0.00764739685805
0.00764616630733
0.00764197419883
0.00763549654837
0.00762757640068
0.00762071270404
0.00761149894436
0.0076028081584
0.00759537069799
0.00758928237331
0.00758437149939
0.00758046362428
0.00757740737039
0.00757505380806
0.00757326138298
0.00757190688605
0.00757088250596
0.00757010974924
0.00756957436228
0.00756914136464
0.00756847547499
0.00756755590191
0.00756677536843
0.190186913175
0.0930566150459
0.0561469185265
0.0394210428882
0.0300824214104
0.0241911193501
0.0201654902174
0.0172559422479
0.0150640145261
0.0133590904453
0.0119985953642
0.0108896781216
0.00996925553662
0.00919290080765
0.00852873408836
0.00795574587045
0.00747057126385
0.00710350004597
0.0069188931416
0.00697249847308
0.00725670306614
0.00750521517133
0.00763888544597
0.00770550741794
0.00774709359237
0.00778217404635
0.00781073774992
0.00782796750712
0.00783045300488
0.0078179062213
0.00779322519832
0.00776104228043
0.00772746812079
0.00769266740663
0.00766150726654
0.00763594908993
0.00761630107133
0.00760185387442
0.00759156606431
0.00758439696386
0.00757946271404
0.00757607506554
0.00757373784535
0.00757210566655
0.00757094854775
0.00757016169346
0.00756959006066
0.00756887268559
0.00756790255675
0.00756703822025
0.145734308978
0.397161441006
0.764188267405
0.0319397785135
0.0833559438237
0.0986836011639
0.372747773588
0.882134607048
2.00050436482
1.56704037121
0.616787133892
0.602731984891
1.367890628
2.56047730732
1.79017565077
7.78097553964
12.0840747133
1.49903784925
1.58412303929
3.23586605331
7.04491500915
3.87411101643
11.6673600919
27.2684227374
2.26498297494
3.01125296463
5.42634091521
18.9213229853
0.160361155393
0.229290836592
0.694833214048
0.0444755586095
0.136947548072
0.0840663853355
1.20890065197
1.5299795934
1.21109231641
3.86598267103
13.5078552429
6.2235698938
12.3502733219
23.6741049029
16.0479960861
29.5840436972
11.9114998039
26.1994759407
18.3125971273
17.1005291962
0.052864698018
0.0205285965333
0.153180041647
0.0243613377181
0.053193044909
0.0169002680617
0.0692866733496
0.240787699539
0.20565795738
0.285604078617
20.1843017343
17.175136187
11.5654909472
12.3252471567
27.421134891
24.9645618185
20.9116209115
29.8882864462
27.5368661373
27.2792958523
21.4663893825
0.0492356582592
0.0191868345476
0.115324131982
0.017419370392
0.0563352028209
0.0175050854653
0.0598956775046
14.7220884333
19.5122363514
10.9254460129
19.6626619212
20.9324526385
19.2892575526
10.5761737458
0.0405540524775
0.0183331314893
0.0976225103827
0.0171024524167
0.0410236480355
0.01687227081
0.0477126139
13.7613135142
17.6579829155
11.571016978
17.7182581534
11.6411511293
14.8578775373
15.2388388934
0.0406365979004
0.0124783587295
0.0678096697341
0.016222014294
0.035818451897
0.0333982759528
0.0483526264286
0.122814664054
0.17387296266
0.18653235238
8.37453849318
19.8161112618
6.86912052239
7.00865228055
20.4046715799
25.5040384615
19.0870028849
10.0523718452
17.0644499244
26.4572505703
26.0246313146
0.26442895794
0.0156784774867
0.176132455879
0.114128831248
0.473793846084
0.0847032086058
0.143833227079
0.587207817328
1.25478820988
0.4284357183
1.53301591813
12.3404255327
9.96514070595
10.7911712882
18.8449638733
8.61383390819
18.6191760097
16.6398375926
3.253990112
3.45588593849
14.8435748886
31.5749279408
0.738788167959
0.0142649512432
0.307372356774
0.212128411965
0.731122265834
0.0708635127144
0.0981089559146
4.12798071806
0.229884466461
0.420352946761
0.763046338729
1.60611717444
0.617209764208
0.336787706252
8.83366323033
0.780854581501
1.03166163512
1.28064984997
11.2490402229
1.17601876706
0.902282343212
6.94252089773
1.41047512217
2.12448204281
4.29462323618
19.8296599517
1.62652534093
1.46991131415
0.0390806384145
0.0177384348175
0.0133052114279
0.0136562591458
0.0212858083611
0.0200482476395
0.0119017380032
0.0102641408674
0.0100797487511
0.00970780527878
0.00950752844533
0.00932321011059
0.00908530375138
0.00883775925768
0.00859922105814
0.00838378827964
0.00819547915509
0.00803804306251
0.00791156089651
0.00781440076495
0.0077437141926
0.00769622095265
0.00771268907825
0.00781743379011
0.00797778448948
0.00814283586563
0.00826486954631
0.00832132383113
0.00831519734911
0.00825945972328
0.00817179812028
0.00807059408446
0.00797353261843
0.00788914356388
0.00781961167009
0.00776446893707
0.00772272309433
0.0076925510544
0.00767163692709
0.00765763354934
0.00764849408969
0.00764263851088
0.00763894185299
0.00763663679153
0.0076352565652
0.00763447275008
0.00763381962939
0.00763298431117
0.0076321946585
0.0140154042401
0.0784278206171
0.0314991111835
0.0189657760125
0.013564952131
0.0106563825226
0.00890027579474
0.00785025189503
0.00821905909375
0.0127440758001
0.0107307681642
0.00968180606232
0.00958541423862
0.00907844679769
0.00885101139388
0.00862133214003
0.00840932792073
0.0082215792685
0.00805969332878
0.00792606576041
0.0078198989558
0.00773895516293
0.00767993444134
0.00763890915941
0.00761185855823
0.00759503944302
0.00758521469733
0.0075798036006
0.00757689466781
0.00757523542374
0.00757414034544
0.00757308796076
0.00757166095284
0.0075720309152
0.00757061986736
0.00756972062608
0.00756917890222
0.00756882624308
0.00756858890358
0.00756843113211
0.00756832941083
0.00756826306371
0.00756821652887
0.00756817857241
0.00756813405373
0.00756811164157
0.00756813188742
0.00756796521388
0.00756738221104
0.00756664486176
0.00756615203542
0.0950681567581
0.0403848198737
0.0244958791559
0.01736053632
0.013417345209
0.0109562366652
0.00929364286456
0.00811324764157
0.00730728049489
0.00709555487292
0.00849816290145
0.00962225306382
0.00915004484861
0.00903419403523
0.00863115270988
0.00843861654606
0.0082602574303
0.00810201176515
0.00796715948213
0.00785699736611
0.00777068414715
0.00770590598906
0.0076594386338
0.00762765741197
0.00760693803322
0.00759402662098
0.00758624606548
0.00758155889188
0.00757858303725
0.00757652271078
0.00757477089311
0.00757283905064
0.00757284529827
0.00757117954729
0.0075701032526
0.00756943931661
0.00756900295473
0.00756870898153
0.00756851323919
0.00756838608646
0.00756830264271
0.00756824448626
0.00756819853145
0.00756814844905
0.00756812226308
0.00756813976256
0.00756797084016
0.00756738648078