/*--------------------------------*- C++ -*----------------------------------*\
| =========                 |                                                 |
| \\      /  F ield         | OpenFOAM: The Open Source CFD Toolbox           |
|  \\    /   O peration     | Version:  2506                                  |
|   \\  /    A nd           | Website:  www.openfoam.com                      |
|    \\/     M anipulation  |                                                 |
\*---------------------------------------------------------------------------*/
FoamFile
{
    version     2.0;
    format      ascii;
    arch        "LSB;label=32;scalar=64";
    class       volScalarField;
    location    "1";
    object      nut;
}
// * * * * * * * * * * * * * * * * * * * * * * * * * * * * * * * * * * * * * //

dimensions      [0 2 -1 0 0 0 0];

internalField   nonuniform List<scalar> 
104960
(
0.000588131578005
0.000467958354269
0.000537058564158
0.000697152914713
0.00118330148469
0.00102668198062
0.000804584759031
0.000784349538016
0.000786762881566
0.0007769177825
0.000770593477029
0.000764335023682
0.000755016178438
0.000744754959706
0.000734994501926
0.000726659385316
0.000720376424627
0.000716703824357
0.000716189704954
0.000719570342428
0.000727704721407
0.00074111735171
0.0007460071952
0.000760259496879
0.000814268356052
0.000890693789093
0.00096946951152
0.00103718307536
0.00108732698078
0.00111778936277
0.00112886039893
0.00112325090456
0.00110507128
0.00107982613041
0.00105046256402
0.00102017368262
0.000991556145723
0.000966203912405
0.000944816658354
0.000927473581119
0.000913870601194
0.000903507628389
0.000895832891605
0.000890308403578
0.000886462446096
0.000883891404983
0.000882259903857
0.000881277444743
0.000880724221129
0.000880485343436
0.000661995844406
0.000496794661506
0.00046197593307
0.000446850509485
0.000439520328258
0.000436873662222
0.00043862764495
0.000460037047814
0.000586861781041
0.00078157396397
0.000708256763974
0.000738390902262
0.000724599059076
0.000713165448672
0.000703473589095
0.000692750301711
0.000682662120638
0.000673778799557
0.000666262947345
0.000660138918149
0.000655336841922
0.000651720739388
0.000649111249675
0.000647312719043
0.000646133742187
0.000645400835741
0.000644968788044
0.000644724979666
0.000644592616021
0.000644528741632
0.000644497728103
0.000644452454171
0.000644389010517
0.000644308861855
0.000644249970056
0.000644210907789
0.00064418365611
0.000644163983233
0.000644149990571
0.000644140340572
0.000644133855367
0.000644129553284
0.000644126808101
0.000644126496644
0.000644134844442
0.000644160060407
0.000644188929145
0.000644188870682
0.000644157579097
0.000644125380702
0.000687459736808
0.000538434270371
0.000499337313855
0.000478916110772
0.000466425825905
0.000458193191004
0.000452638831044
0.000449049594389
0.000448660940063
0.000462995115587
0.000528751783445
0.000671870723721
0.000679301429581
0.000713130982009
0.000698890344902
0.000691967651328
0.000683843296811
0.000675742141396
0.000668427990767
0.000662236035596
0.00065722378873
0.000653329075484
0.000650424981565
0.000648351785277
0.000646935170842
0.00064600702191
0.000645420226264
0.000645057045346
0.000644834192528
0.000644702665236
0.000644622032782
0.000644540809882
0.000644451213297
0.000644352382298
0.000644280273926
0.000644231985547
0.000644198334057
0.000644174234242
0.000644157178176
0.00064414539444
0.000644137409519
0.0006441320402
0.000644128528162
0.000644127666571
0.000644135625001
0.000644160542019
0.000644189140955
0.000644188879883
0.000644157505375
0.00064412529673
0.000701557467246
0.00056066142152
0.000520661549244
0.000498883064514
0.000484947565184
0.000475255287322
0.000468207806146
0.000463004886543
0.000459245790365
0.000457674505311
0.000464990520718
0.0005017513699
0.000598291274109
0.000664209338633
0.00069465717196
0.000690792761296
0.000685085629353
0.000678816585864
0.000672030131005
0.000665767144133
0.000660434658237
0.000656105641224
0.000652730893412
0.000650203857175
0.000648380394536
0.000647108743117
0.000646244577147
0.000645664715567
0.000645276584278
0.000645021244791
0.000644849630807
0.000644702379613
0.000644564794715
0.000644431658895
0.000644335162845
0.000644269788904
0.000644224306307
0.000644192103242
0.000644169523518
0.000644153968746
0.000644143388931
0.0006441362171
0.000644131442075
0.000644129697102
0.000644137046243
0.000644161513509
0.000644189720042
0.000644189155855
0.000644157639106
0.000644125394091
0.000710884804445
0.000575158596832
0.000534863435789
0.000512493273784
0.000497907935569
0.000487558148005
0.000479851441412
0.000473987448536
0.000469525606684
0.000466295276349
0.000465369594342
0.000473365101403
0.00050728653173
0.00058592954852
0.000654243472484
0.000686801472537
0.000686738295685
0.000682666000503
0.000677224690972
0.000671109028488
0.000665402454332
0.000660491637223
0.000656454371492
0.000653251685144
0.000650794603844
0.000648967301963
0.000647642577933
0.00064669694875
0.000646027376991
0.000645560595142
0.000645233251779
0.000644972775008
0.000644753167357
0.000644561778908
0.000644424064441
0.000644329986309
0.000644264872888
0.000644219464514
0.000644188072554
0.000644166637466
0.000644152109229
0.000644142259081
0.000644135649526
0.000644132643479
0.000644139135823
0.00064416298896
0.000644190675783
0.000644189709014
0.000644157988615
0.000644125673269
0.000717670415313
0.000585644054577
0.000545240768524
0.000522536408164
0.000507575434621
0.000496843074681
0.000488756655466
0.000482516601273
0.000477696756382
0.000474059946883
0.000471699781379
0.000472479075838
0.000484281774756
0.000521731337608
0.000593781009471
0.000649003683758
0.00068889437686
0.000687637891605
0.000684351963877
0.000678912002854
0.000672885231155
0.000667259167841
0.000662343399592
0.000658178616596
0.00065476392873
0.000652055802278
0.000649975174392
0.000648417678726
0.000647274284819
0.000646451913909
0.000645863266008
0.000645412972123
0.000645056482937
0.000644768476258
0.000644562789493
0.00064442182327
0.000644325218875
0.000644259147966
0.000644214354127
0.000644184231649
0.000644164028241
0.000644150423102
0.000644141294416
0.000644136589302
0.000644141941256
0.000644164988895
0.000644192019672
0.0006441905524
0.000644158563697
0.000644126135699
0.00072290730043
0.000593719222448
0.000553279023617
0.000530351145378
0.000515132439699
0.000504135587906
0.000495787047909
0.000489292583248
0.000484242809986
0.000480424680729
0.000477784954823
0.000476872583716
0.000480904252957
0.000499335043569
0.000541511735844
0.000607131383833
0.000657219851635
0.000697912952539
0.000694607430514
0.000690500747168
0.000684281187164
0.000677797504397
0.000671720498886
0.000666209927824
0.00066135196784
0.000657231667192
0.000653889189808
0.000651289785065
0.000649338705057
0.000647916357967
0.000646891629161
0.000646126327309
0.00064554326744
0.000645095263745
0.000644777012656
0.000644559328583
0.000644412603017
0.000644314807507
0.000644250196876
0.000644207684183
0.000644179638642
0.000644160976445
0.000644148527788
0.000644141621471
0.000644145511658
0.000644167539359
0.000644193765582
0.00064419169869
0.000644159375089
0.000644126785639
0.000727115459361
0.000600204489108
0.000559755498419
0.000536657069291
0.000521236117838
0.00051002926325
0.000501471233278
0.000494778199249
0.000489563581408
0.000485661098069
0.000483053609236
0.000481993187686
0.000483909285743
0.000493962264146
0.000522033914317
0.00056652315326
0.000625819748141
0.000692168221428
0.000714309678682
0.000709150725046
0.00070258501039
0.000694775724591
0.000687031855061
0.000679613852732
0.000672556207413
0.000666096872433
0.000660560124004
0.000656123798644
0.000652763480671
0.000650320341926
0.000648572099907
0.000647290000368
0.000646334033452
0.000645618253667
0.000645109062715
0.000644763301741
0.000644536298844
0.000644390290418
0.000644297141917
0.000644237550911
0.000644199044949
0.000644173817975
0.000644157206621
0.00064414802064
0.000644151627825
0.000644173579047
0.000644196215994
0.000644188756137
0.000644154894191
0.000644124396437
0.000730598489299
0.000605571890902
0.000565123129659
0.000541879888309
0.000526282531217
0.000514889596635
0.000506144050543
0.000499277610241
0.000493939286152
0.000490038819792
0.000487692366125
0.000487244220777
0.000489650563385
0.000497969750592
0.000519618961563
0.000560118059417
0.000606012528797
0.000663470803615
0.000732378160356
0.000739489678552
0.000734410408089
0.000724062471269
0.000713204342697
0.000702851600474
0.000692340213621
0.000681794775993
0.000672198114745
0.000664349858778
0.000658447371672
0.000654255435887
0.000651324222251
0.00064920997324
0.000647657986024
0.000646483362493
0.000645631434344
0.000645062988332
0.000644706887952
0.000644489760493
0.000644357240248
0.000644275127077
0.000644223231
0.000644189773383
0.000644167962001
0.000644155417213
0.000644156824972
0.000644177289844
0.000644198864026
0.000644190655707
0.000644156301291
0.000644125475804
0.000733548250786
0.000610117179653
0.000569668873856
0.000546292871499
0.000530530140531
0.000518960161061
0.000510035415639
0.000503009715121
0.000497589876345
0.000493821458182
0.000492117966335
0.000493349122737
0.000499049446837
0.000512087894023
0.000537649390387
0.000575396169698
0.000563654494669
0.000508914024778
0.000583997235684
0.000573970454944
0.000665444340822
0.000736592620768
0.000751649171123
0.000744049173394
0.000729141305505
0.000710895749883
0.000693125513911
0.000678521217301
0.000667847673381
0.000660695965444
0.000655938252265
0.000652486737036
0.000650104409413
0.000648058464018
0.000646484086546
0.000645494240687
0.000644930394266
0.000644613652268
0.000644430357887
0.000644320252082
0.000644251995885
0.000644208603912
0.000644180581741
0.000644164053927
0.000644162849155
0.000644181554936
0.000644201926946
0.000644192910797
0.000644158001592
0.000644126774935
0.00073609371293
0.000614038717805
0.000573588038432
0.000550085367712
0.000534162285081
0.000522419330349
0.000513321753168
0.000506155600276
0.000500723072049
0.000497329623724
0.000497088846748
0.000502661255115
0.000520307494153
0.000525049716408
0.000454226580909
0.00098682454941
0.00232326351321
0.00512198942892
0.00511896393956
0.00331744782364
0.00163193147644
0.000871350855694
0.000714630278686
0.000747765248546
0.000778207538265
0.000763165010314
0.000731548486666
0.000703377827847
0.00068336174141
0.000671924136871
0.000665438228691
0.000659407039252
0.000656582920352
0.000652084046744
0.000648117857332
0.000646128901199
0.000645206233724
0.000644758159975
0.000644515295286
0.000644372694228
0.000644285306937
0.000644230292885
0.000644195043881
0.000644173909533
0.000644169676299
0.000644186349694
0.000644205402595
0.000644195556426
0.000644160049084
0.000644128351479
0.000738326132746
0.0006174775223
0.000577022398828
0.000553398592793
0.000537320494694
0.000525410837654
0.000516153286499
0.000508881413555
0.000503552098415
0.000500970564471
0.000503974812031
0.000521129362181
0.000544105134613
0.000730820717012
0.0032952230757
0.00938484233069
0.0169615027949
0.0292088336923
0.33069355775
0.153290451559
0.0369109537128
0.00740247745986
0.00292595812026
0.00162992792659
0.000963809230479
0.000815079117337
0.000788478294982
0.000748275046537
0.000713703414347
0.000702521773075
0.00070277127805
0.000689297361849
0.000689037732382
0.000671875883652
0.000651559256481
0.000646308333863
0.000645242992766
0.000644863736767
0.000644604986407
0.000644432002707
0.000644323104233
0.000644254750432
0.000644211261667
0.000644184917163
0.000644177262511
0.000644191661594
0.000644209339888
0.000644198718572
0.000644162606754
0.000644130247412
0.000740312505257
0.000620538522593
0.000580080429507
0.000556344428196
0.000540121260818
0.000528057691148
0.000518662701938
0.000511334895548
0.000506259616266
0.000505115812708
0.000513770191241
0.000567230538812
0.00115045787255
0.00627615704225
0.0964423411511
0.255464852422
0.42393459255
0.412939464582
0.311559284896
0.119221460225
0.0492697958936
0.0244952731189
0.00522621624325
0.00122634435221
0.00103403264889
0.00134385381501
0.00106033428292
0.00122896591229
0.00146460671045
0.00138689522814
0.00149316091437
0.000919075595134
0.000723210903936
0.00066249230007
0.00064774470084
0.000645235883788
0.000644723751105
0.000644499798868
0.000644365300815
0.000644281723954
0.000644229066986
0.000644197069235
0.000644185807921
0.000644197886577
0.000644214092871
0.000644202453305
0.000644165404219
0.000644132219131
0.000742102855038
0.000623301906386
0.000582847473
0.000559013861318
0.000542662398552
0.000530464958081
0.000520960493575
0.000513621497463
0.000508906223337
0.000509705929342
0.000526522734526
0.00095810441141
0.00495696150639
0.429265393962
0.433978846591
0.381052114449
0.269667855527
0.155336746167
0.0362361986732
0.00501090841733
0.00513358050105
0.020360669432
0.0233758106221
0.00765747223929
0.00264786141317
0.00280928006816
0.00260336178598
0.00182582836083
0.00152380774497
0.00105344766557
0.000736756029312
0.000661178734927
0.00064709928841
0.000644979602479
0.000644579755983
0.000644411841686
0.000644312234325
0.00064424995002
0.000644211548843
0.000644195672275
0.000644204426693
0.00064421873438
0.000644206194579
0.000644168344004
0.000644134296268
0.000743735317441
0.000625829541049
0.000585390731323
0.000561480105532
0.00054502386625
0.000532717667471
0.000523128109409
0.000515786566978
0.000511366484607
0.000513821902897
0.000537418134865
0.000751642172697
0.229970313859
0.333324325601
0.288129488302
0.14120961863
0.043921859354
0.0370921197455
0.0223550641086
0.0125958402971
0.00767588583709
0.0124606927254
0.0169384554773
0.00933326613241
0.00453553101604
0.00218634594229
0.00170244728713
0.000954215391128
0.000765062284128
0.00067507146904
0.000650967438663
0.00064607966659
0.000645039936551
0.000644663550801
0.000644462300891
0.000644343361325
0.000644270101051
0.000644225060387
0.000644204805735
0.00064421058772
0.000644223288195
0.000644210018401
0.00064417140575
0.000644136428657
0.000745238465108
0.000628168419263
0.000587761080448
0.000563798489191
0.000547265750228
0.000534877970013
0.00052521830872
0.000517833912702
0.000513428696591
0.000516123152581
0.000539642442566
0.00074629535704
0.201122258411
0.144850403513
0.175505574335
0.20063797078
0.127902642577
0.0303324432562
0.00822034964244
0.00401069409651
0.00261394323749
0.00748252545249
0.0172987068582
0.0119452251068
0.00550976736686
0.0041629749644
0.00233494367861
0.00139725473703
0.0010033344206
0.000725381035506
0.000659654962353
0.000647235876082
0.000645200263714
0.000644723300643
0.000644501632637
0.000644370304067
0.000644288685848
0.000644237971554
0.00064421362273
0.000644216499336
0.000644227699981
0.000644213863065
0.000644174554698
0.000644138606654
0.000746633145969
0.000630352322388
0.000589993687104
0.000566005653741
0.000549426401628
0.000536984312897
0.000527263320567
0.000519773641597
0.000515040285309
0.000516268791685
0.000532085160289
0.000701027928674
0.00302250930511
0.207554827278
0.217738987643
0.31194082404
0.340595810165
0.258720367458
0.078983709848
0.00835326110965
0.00142307920374
0.000953027935175
0.00123034912407
0.0033967236177
0.00372732577935
0.00226603051973
0.00164628224569
0.00133517714287
0.00101313277708
0.00077007168808
0.000678425868764
0.000651799932499
0.000646133897331
0.000645089719796
0.000644741457184
0.000644529267881
0.000644392481236
0.00064430501844
0.000644249700792
0.000644221719767
0.000644221880699
0.000644231751504
0.000644217551353
0.000644177653995
0.000644140723674
0.000747934067982
0.000632403952397
0.000592109773107
0.000568120892726
0.000551524597755
0.000539057171031
0.000529290914164
0.000521665849276
0.000516402493201
0.000515375126752
0.000526306668273
0.000573383449959
0.0013461182434
0.00713196968386
0.27916862853
0.324359427622
0.263587811542
0.323104483784
0.235231698565
0.0531086800999
0.00400385775292
0.000793726699594
0.000782977418391
0.000785685381867
0.000773226100251
0.000750131280618
0.00075241737495
0.000761755476395
0.000717319124585
0.000687672488979
0.000661602248927
0.000649348794301
0.000646291251014
0.00064554464149
0.000645100179035
0.000644770814505
0.000644551135626
0.000644410012444
0.000644318702929
0.000644259933319
0.000644228897746
0.000644226616145
0.000644235360259
0.000644221016242
0.000644180662633
0.000644142769283
0.00074915171595
0.0006343379832
0.000594121200116
0.000570152584985
0.000553562630588
0.00054109093525
0.00053129053573
0.000523524260761
0.000517736418223
0.000514758857869
0.000517651421638
0.000536766806861
0.000616170969022
0.00112138833723
0.0067525090058
0.0264525794658
0.0704376884025
0.295573475822
0.416277175886
0.361038276999
0.332158570388
0.190737799019
0.0422326312999
0.00330082282091
0.000784726745255
0.000808725851205
0.00077471141265
0.000743345754564
0.000719373584178
0.00069865756453
0.000684954309822
0.000674267338778
0.00066569523767
0.000660000194987
0.000653169140426
0.000648826912014
0.000646690260147
0.000645677560182
0.000645123460862
0.000644782484611
0.000644564472946
0.000644422925157
0.000644329641959
0.000644268493669
0.000644235006248
0.000644230601625
0.000644238439663
0.000644224173527
0.000644183518436
0.000644144710941
0.000750293642613
0.000636161994654
0.000596027929298
0.000572090261761
0.000555520922878
0.000543061565512
0.000533246748074
0.000525377577511
0.000519207835479
0.00051496391441
0.000513642224761
0.000517709757891
0.000532585311016
0.000564139645509
0.00124263193859
0.00323181909354
0.00635078326191
0.00802956376582
0.00191545725509
0.00171379367469
0.00135497517669
0.0008522340634
0.000742066242665
0.000797534822934
0.00078262692468
0.000751152485267
0.00072525573828
0.000706201284252
0.000691592117575
0.000679875787694
0.000670788701503
0.000663487191065
0.000657869751292
0.000653724940117
0.000650350002567
0.000647965793232
0.000646498203304
0.000645633718099
0.00064511214366
0.000644784276971
0.000644572032186
0.000644431923382
0.000644338008189
0.000644275386981
0.000644240015445
0.000644233811499
0.000644240952304
0.00064422696415
0.000644186165124
0.00064414651617
0.000751365349152
0.000637882132947
0.000597832517147
0.0005739319586
0.000557391900826
0.000544956021063
0.000535144011811
0.000527214523922
0.000520810505805
0.000515864435485
0.000512610482123
0.000511591790301
0.000513529624658
0.000519093654855
0.000528393129832
0.000533050415768
0.000528275425558
0.000543819116175
0.000600077543452
0.000646706486371
0.00068076240342
0.000706949925254
0.000719348759624
0.00072071071337
0.000714043075329
0.000703725366387
0.000693048753944
0.000683500905915
0.000675359872218
0.000668522220342
0.000662857259316
0.000658166769083
0.000654364046332
0.000651400128431
0.000649106363833
0.000647430353074
0.000646294646051
0.000645558998816
0.000645086203138
0.000644778399227
0.000644574565439
0.000644437457676
0.00064434400509
0.000644280674299
0.00064424393421
0.000644236250358
0.000644242890171
0.000644229354131
0.000644188566356
0.000644148170541
0.000752371535288
0.000639502658403
0.000599535103543
0.000575672146552
0.000559163235098
0.000546754734091
0.000536955481423
0.000528997164988
0.000522463796125
0.000517155852558
0.000513036199071
0.000510167423619
0.00050859915173
0.000508328784402
0.000509665587178
0.000514219201314
0.000524919764493
0.000543855654223
0.000575695321927
0.000611333022184
0.000634088672972
0.000659692854327
0.000674917945602
0.000680685389492
0.0006809099971
0.000678186182387
0.000674103402799
0.000669609443152
0.000665236216462
0.000661233249107
0.000657695197567
0.000654633649867
0.0006520439316
0.000649927985472
0.000648252771811
0.000646992002014
0.000646091351826
0.000645470957729
0.000645050700276
0.000644766443263
0.000644572972625
0.000644440077052
0.000644347924461
0.000644284497322
0.000644246836734
0.000644237973436
0.000644244283519
0.000644231334609
0.000644190699508
0.000644149665454
0.000753316302568
0.000641027908864
0.000601137261424
0.00057730857375
0.000560827877084
0.000548444963324
0.000538661143367
0.000530691324973
0.000524088879519
0.000518595527751
0.000514073321375
0.000510448406981
0.000507649780112
0.000505607719823
0.000504483443194
0.000505412557724
0.000511450762834
0.000526833102643
0.000557168178284
0.00059734874061
0.000619862375814
0.000642723485764
0.0006570120059
0.00066291555099
0.000664685741876
0.000664466180256
0.000663117890841
0.000661115006565
0.000658816933871
0.000656473390838
0.000654241816542
0.00065220906408
0.000650416747556
0.000648879289014
0.000647615865808
0.000646634659353
0.000645906563462
0.00064538187494
0.000645010554654
0.000644750270413
0.000644568174528
0.000644440339568
0.000644350119651
0.000644287063656
0.000644248844958
0.000644239065362
0.000644245182164
0.000644232910403
0.000644192547929
0.000644150993319
0.000754203685226
0.0006424626975
0.00060264252057
0.000578842755461
0.000562384745731
0.000550022331464
0.000540251732961
0.000532277256848
0.000525635888987
0.000520042235354
0.000515317296702
0.000511340607863
0.000508011582004
0.000505248030743
0.000503133688589
0.0005024957816
0.000506055603086
0.000518633609069
0.000546305946028
0.000587086723813
0.000613355562494
0.000635682329273
0.000649023733903
0.000654435588583
0.00065639672461
0.000656958729482
0.000656717695717
0.000655903923195
0.000654717195033
0.000653336389545
0.000651905795401
0.000650527234745
0.000649258668144
0.000648113788288
0.000647134272615
0.00064634925815
0.00064574799358
0.000645299227181
0.000644970225843
0.000644732192092
0.000644561280085
0.000644438779347
0.000644350865475
0.000644288532399
0.000644250075249
0.000644239622655
0.000644245658866
0.000644234114564
0.0006441941175
0.000644152160091
0.000755037722534
0.000643812563321
0.000604056271634
0.000580279634946
0.000563838035366
0.000551489900511
0.000541728129212
0.000533750101257
0.000527083649157
0.000521430101865
0.00051659182797
0.000512429245767
0.000508831299578
0.000505710436418
0.000503103254237
0.00050164318899
0.000503743478777
0.000514336389978
0.000539617392898
0.000579164397971
0.000609140383437
0.000632231820995
0.000645161242462
0.000650169845077
0.000652005720452
0.000652757375132
0.000652942233866
0.000652683085933
0.000652082720183
0.000651255956033
0.000650315763142
0.000649355173793
0.00064843198213
0.000647553474976
0.000646770835086
0.000646124965473
0.000645617033828
0.000645227009519
0.000644932788081
0.000644714186829
0.000644553498947
0.000644436070637
0.000644350500094
0.000644289066067
0.000644250613775
0.000644239712015
0.000644245781078
0.000644234992577
0.00064419542969
0.000644153182492
0.000755822451036
0.000645083541872
0.000605385110623
0.000581626355265
0.000565195400505
0.000552855701666
0.000543098137128
0.000535115565835
0.000528430396939
0.000522737025895
0.000517828647119
0.000513556630659
0.000509804968712
0.00050648274327
0.000503596275342
0.000501647765496
0.000502794008221
0.000511904238834
0.000535170845819
0.000572991359053
0.000605905463557
0.000630239023231
0.000643163746206
0.000647946001759
0.000649617691093
0.000650360069416
0.000650685898501
0.000650676608714
0.000650382272755
0.000649872973261
0.000649232631011
0.000648539478587
0.000647844155953
0.000647145840254
0.000646499438493
0.000645952026068
0.000645512136736
0.000645166599551
0.000644899831092
0.00064469728775
0.000644545487439
0.000644432678759
0.000644349366753
0.000644288921776
0.000644250647904
0.000644239485674
0.000644245670721
0.000644235619202
0.000644196521249
0.000644154088017
0.000756561748403
0.000646281916971
0.000606636319191
0.000582891263393
0.000566466353369
0.000554130387566
0.00054437328665
0.0005363849776
0.000529684573843
0.000523962752193
0.000519007960052
0.000514666909078
0.000510820885126
0.000507376699957
0.000504319989862
0.000502055230094
0.000502511621594
0.000510403776107
0.000531899957878
0.000567955708786
0.00060313154191
0.000628887171537
0.000642076158312
0.000646772312813
0.000648304604281
0.000648977428356
0.000649327972804
0.000649424037129
0.000649287289636
0.000648959138307
0.000648501541874
0.000647978470482
0.000647431879569
0.00064685405867
0.000646300717166
0.000645821986162
0.000645430815419
0.000645118116867
0.000644872220574
0.000644682239916
0.000644537690501
0.000644428901069
0.000644347718722
0.000644288312029
0.000644250353063
0.000644239106065
0.00064424547545
0.00064423610568
0.000644197458144
0.000644154919307
0.000757259291403
0.000647414011616
0.000607817571857
0.000584083376689
0.000567661296195
0.000555325737978
0.000545566529567
0.000537571882607
0.000530858974057
0.000525116516077
0.000520130563777
0.000515745412851
0.000511840762528
0.000508321733971
0.00050515866011
0.00050267670852
0.000502589192811
0.000509390483979
0.000529240202234
0.000563622069972
0.000600545633293
0.000627823149924
0.000641459885784
0.000646165316201
0.000647591118909
0.000648184885638
0.000648517380869
0.000648652390272
0.000648595321229
0.000648369583914
0.000648021564023
0.000647603995387
0.00064715149506
0.000646651797467
0.000646160107657
0.000645727784161
0.000645370222113
0.00064508074157
0.000644850035042
0.000644669512691
0.000644530621274
0.000644425151206
0.000644345876782
0.000644287513271
0.000644249983935
0.000644238791251
0.000644245375141
0.000644236585539
0.000644198332591
0.000644155738049
0.000757918549136
0.000648486989829
0.000608938068845
0.00058521347272
0.000568792437129
0.000556455434127
0.000546692984102
0.000538692507451
0.000531970228025
0.000526213957299
0.000521208676853
0.000516797624351
0.000512859647597
0.000509298334275
0.000506071588945
0.000503436062018
0.00050289295379
0.000508659802202
0.000526907606398
0.00055976783341
0.000598069713263
0.000626906056683
0.000641094894424
0.000645868623024
0.000647221151264
0.000647749053129
0.000648055304903
0.000648201697594
0.0006481837526
0.000648013931501
0.000647728509025
0.000647372426706
0.000646975250174
0.000646522255115
0.000646068073417
0.00064566448417
0.000645328161428
0.000645053745388
0.000644833253819
0.000644659424241
0.000644524764555
0.000644421913076
0.000644344234195
0.000644286815363
0.000644249767534
0.000644238738423
0.00064424553302
0.000644237173878
0.000644199213807
0.000644156586957
0.000738314602929
0.000656572478707
0.000613807026391
0.000588774101506
0.000571673447424
0.00055892834585
0.000548895723944
0.000540703030365
0.000533836235412
0.00052796665969
0.000522869429734
0.000518381940109
0.000514379526104
0.000510761051875
0.000507463090367
0.000504621303143
0.00050330833983
0.000507024821156
0.00052189215459
0.000552058434668
0.000591759182062
0.000623258796985
0.000638641978653
0.000643311998552
0.000644353085425
0.000645151962093
0.000646576288796
0.000648521679511
0.000650540910769
0.000652131592001
0.000652952492113
0.000652928032043
0.000652189798179
0.000650967809803
0.000649564440077
0.000648236492081
0.000647121925666
0.000646255088804
0.000645615453153
0.000645160219829
0.000644843560658
0.000644625642937
0.000644475909276
0.000644373131736
0.000644306376027
0.000644274921623
0.000644270102961
0.000644258347792
0.000644218587391
0.000644171596068
0.00172571982383
0.00431057899474
0.00646855520601
0.000675948969224
0.00113846718549
0.0014299003334
0.00381269263364
0.00727518659228
0.00772530440895
0.00899230558408
0.00546558341166
0.00536543992211
0.00844429001147
0.0111420869236
0.0126472906603
0.0285295354412
0.0505088514384
0.0106174226768
0.0123441007638
0.0154195713245
0.0813566625563
0.0240831071191
0.0519163421447
0.171745460882
0.0170908487181
0.021182929608
0.0740644350962
0.174515504134
0.0023336075876
0.00363770758422
0.0063986418579
0.00100915344554
0.00205286514864
0.00166987957788
0.00784328207454
0.0089924321788
0.00915414637358
0.0090321609158
0.239096320385
0.0726904335193
0.216092185637
0.25211283086
0.147008150113
0.358498482134
0.212689627472
0.301990517143
0.127357212062
0.0982203835545
0.00138678715831
0.000815765173932
0.0031603408315
0.000869148120107
0.00138031359356
0.000724456039443
0.00178901001957
0.00412492918071
0.00342401706559
0.00465511657031
0.174721100134
0.112031406146
0.0404369128341
0.0416493256952
0.455256913343
0.326880559624
0.401573056658
0.414662404737
0.451939459573
0.351308023723
0.364548956733
0.00148930913007
0.00080135754569
0.00281081164966
0.000745334889395
0.00157921266445
0.000753773851749
0.00174410892637
0.23695376136
0.210420059399
0.197723114327
0.235146010044
0.337672146755
0.211198151426
0.185848097401
0.00134559193027
0.000776741670391
0.00262800524256
0.000746230292133
0.00134245290386
0.000739990533638
0.00148665535184
0.228713286083
0.219071910034
0.211400129429
0.20035450556
0.198203433476
0.141751980399
0.256183427353
0.00126948817695
0.00060940414385
0.00169794252093
0.000719505890848
0.0012018464364
0.00109002087082
0.00135568992028
0.00270877003736
0.00378197390694
0.00366905694347
0.0299848707976
0.243467402112
0.0126138830161
0.03711452178
0.316627527307
0.335193817825
0.312270795959
0.0463205427873
0.276001859722
0.371439998223
0.360106083417
0.00388024071475
0.000674682441527
0.00280240468491
0.002426428172
0.00836995856898
0.00168098728104
0.00241266703837
0.00649513486564
0.00891265230542
0.00505913959022
0.00880281625265
0.154455918463
0.0782096238667
0.131976361359
0.23299434716
0.144714540621
0.285976213803
0.196156485342
0.00505850511121
0.0316952950252
0.182349297067
0.323394784142
0.00746808836251
0.000613619609686
0.00352756810905
0.00294369692019
0.00725711220904
0.00117173455882
0.00144372573624
0.0134155626322
0.00267960287675
0.00436536659966
0.00628386995998
0.00703161771637
0.00593684229654
0.00362237933911
0.04700618449
0.00743929812814
0.00964600052913
0.00760738123122
0.0388447618885
0.00968272671071
0.00850845058809
0.0379215427628
0.0127713168959
0.0161092156497
0.0331350975484
0.184595342267
0.0140761253457
0.0136533989985
0.000428221801695
0.000408922961682
0.000448334616611
0.000585277390712
0.000974030857662
0.00104217045011
0.000795602541248
0.000766402377553
0.000770687643522
0.000757636630772
0.000748930525593
0.00073944026825
0.000726830811234
0.000713614492329
0.000700889792656