/*--------------------------------*- C++ -*----------------------------------*\
| =========                 |                                                 |
| \\      /  F ield         | OpenFOAM: The Open Source CFD Toolbox           |
|  \\    /   O peration     | Version:  2506                                  |
|   \\  /    A nd           | Website:  www.openfoam.com                      |
|    \\/     M anipulation  |                                                 |
\*---------------------------------------------------------------------------*/
FoamFile
{
    version     2.0;
    format      ascii;
    arch        "LSB;label=32;scalar=64";
    class       volScalarField;
    location    "1";
    object      p;
}
// * * * * * * * * * * * * * * * * * * * * * * * * * * * * * * * * * * * * * //

dimensions      [0 2 -2 0 0 0 0];

internalField   nonuniform List<scalar> 
104960
(
-9.55636745676
-9.32880103482
-8.02568434621
-7.17877128849
-7.95926212779
-8.99148892379
-10.3711365405
-12.198118773
-14.3492575968
-16.5946939899
-18.6894052735
-20.539690373
-22.2417282952
-23.944732006
-25.7108206152
-27.4729287734
-29.0716325614
-30.3157864818
-31.0356465622
-31.1187273964
-30.5265135596
-29.2907284275
-27.5446716138
-25.4180421223
-23.0387864008
-20.5470840808
-18.0627748665
-15.6774425852
-13.4590469851
-11.4512918401
-9.67168494252
-8.1188138591
-6.7802000661
-5.6375451142
-4.6700138252
-3.85623107709
-3.17516691754
-2.60739785736
-2.135432792
-1.74386118044
-1.41931071125
-1.15027260893
-0.926928958272
-0.740918943282
-0.585138351073
-0.453523728892
-0.340884505671
-0.242700537966
-0.155025367925
-0.074336039386
-7.94734261455
-8.09356417008
-7.45826002701
-7.40203353237
-8.11578635009
-9.23468407143
-10.8539446295
-13.0042217364
-15.7091716977
-18.780760945
-21.2693700639
-22.9313697895
-24.4677476518
-26.0307505486
-27.6504763305
-29.2431438188
-30.6208247987
-31.5839994208
-31.9705617385
-31.6877731198
-30.7253984853
-29.1528552191
-27.0966714111
-24.7082565253
-22.1428141694
-19.5408389563
-17.0152410331
-14.6472843452
-12.4884330499
-10.5638533028
-8.87797164492
-7.42118305615
-6.17575394125
-5.120146929
-4.23121198679
-3.4868505828
-2.8660903087
-2.35001435142
-1.92191042375
-1.56724510481
-1.27352571586
-1.03008661386
-0.827874450478
-0.659212830181
-0.517585414047
-0.397434792294
-0.293981469348
-0.203063133691
-0.120991166928
-0.0443995274307
-6.16966892537
-6.71610107706
-6.57787127554
-6.76398304814
-7.43766557804
-8.582972765
-10.2235640409
-12.4013380222
-15.1461258212
-18.4624312043
-22.3259977225
-26.3412795399
-28.4939545112
-29.3216399605
-30.5642925151
-31.847403764
-32.9671483969
-33.6921878345
-33.8348784137
-33.2852904627
-32.0270998857
-30.1345156553
-27.7502071739
-25.0516178906
-22.2179102446
-19.4046923875
-16.7298426044
-14.2705526917
-12.0679418223
-10.1349251615
-8.46473413301
-7.03861580326
-5.83180433948
-4.81758476748
-3.96971503653
-3.26378397776
-2.67782644805
-2.19251572042
-1.79113185199
-1.45937807259
-1.18512590473
-0.958137912603
-0.769792992417
-0.612830395112
-0.481118017065
-0.369445779363
-0.273342683421
-0.188916494332
-0.112703514935
-0.0415060277214
-4.06000857301
-4.90357998635
-5.02319469315
-5.40433695655
-6.16821687357
-7.38269531767
-9.10591431945
-11.3939066676
-14.2917746284
-17.8208214107
-21.9633368898
-26.6545994498
-31.663957251
-34.8642859472
-35.3111463428
-36.040814846
-36.7582380738
-37.103302098
-36.8512356803
-35.8623091314
-34.1096180173
-31.6805130143
-28.752273965
-25.5470139561
-22.2830050404
-19.1387314288
-16.2365953333
-13.6437975859
-11.3832018009
-9.44720118828
-7.81031859526
-6.43876393503
-5.29671069722
-4.34989015794
-3.56730083291
-2.92178399712
-2.39001940792
-1.95225519918
-1.59192056856
-1.29519894529
-1.05060879244
-0.848618820231
-0.68130751488
-0.542070715759
-0.42537446942
-0.326543102522
-0.241578728463
-0.167007171821
-0.0997366478872
-0.0369137125644
-1.5723375317
-2.64984470938
-2.90255626834
-3.40739133262
-4.26311248467
-5.5610110977
-7.39142989962
-9.83990532419
-12.9780086845
-16.850292583
-21.4515852711
-26.7061806761
-32.4610399943
-38.3756597403
-42.0020050001
-42.1180859646
-42.2254288884
-42.050374654
-41.2357695946
-39.6030340929
-37.107306598
-33.8607344874
-30.1054319879
-26.1426018254
-22.2538325303
-18.6485344813
-15.4478725101
-12.6958807582
-10.3825042252
-8.46689632716
-6.89537488847
-5.61287167483
-4.56891577233
-3.71993809795
-3.02950332678
-2.46759645627
-2.00972829914
-1.63604909235
-1.33053407713
-1.08025648874
-0.874767840591
-0.705588036282
-0.565794226385
-0.449694368422
-0.352568628177
-0.270458789078
-0.199997939555
-0.138270540865
-0.082686906957
-0.0308620920148
1.31818366213
0.0528087266788
-0.253708820348
-0.810529014304
-1.71005193024
-3.05987023925
-4.98226336977
-7.60508621799
-11.0455363186
-15.390108585
-20.65990488
-26.7706075464
-33.509349577
-40.5518486001
-47.2438392355
-50.4202987574
-49.8041150015
-48.9362266053
-47.3674117724
-44.8382167118
-41.2635501376
-36.799343954
-31.8126537894
-26.7494178763
-21.9930819021
-17.7881078974
-14.2352990959
-11.3281609605
-8.99848102883
-7.15349412943
-5.69963667595
-4.55449708176
-3.6506281277
-2.93488404406
-2.36595423567
-1.91173559428
-1.54734277613
-1.25357203486
-1.01563159804
-0.822086141505
-0.66402331989
-0.534423388638
-0.427690541655
-0.339307027189
-0.265577619167
-0.203433385151
-0.150281083732
-0.103885730513
-0.0622678399824
-0.0236065614645
4.60575303143
3.19683892862
2.90143011951
2.36981334566
1.50535775053
0.179496690587
-1.76972800757
-4.5300158267
-8.29432300493
-13.2292332995
-19.4175091784
-26.7800445016
-35.0173138151
-43.6222019845
-51.9953242491
-58.8463164741
-60.365539364
-58.4287659562
-55.909519301
-52.1702787735
-47.0305843776
-40.7216953387
-33.8742334852
-27.2126230665
-21.2795969039
-16.3391860968
-12.4211613626
-9.41507932255
-7.15370145827
-5.46691667446
-4.20856638798
-3.26471331525
-2.5514676272
-2.00848740358
-1.59197310891
-1.26951637262
-1.01722013834
-0.81771224315
-0.658437454822
-0.530254391808
-0.426398379318
-0.341765652654
-0.272425774965
-0.215289074589
-0.167877000464
-0.12815974258
-0.0944367337336
-0.0652502131382
-0.0393134998331
-0.0154413619481
8.25350088552
6.75311395827
6.53251846236
6.1146868656
5.39402473983
4.21659728398
2.37106392452
-0.412650914837
-4.44786980528
-10.0508108737
-17.4472520336
-26.6163387842
-37.1337766423
-48.1602007009
-58.6944157406
-67.8917503734
-73.377977152
-71.8864523314
-68.0173217673
-62.7578766967
-55.2971260459
-46.0477067689
-36.2708313508
-27.2523458785
-19.7568565584
-13.9842395513
-9.77283501595
-6.8112374252
-4.77287471927
-3.38001328831
-2.42367108273
-1.75944777211
-1.29304761079
-0.9638323851
-0.730235329393
-0.562058279875
-0.438198526318
-0.344741781087
-0.272704836181
-0.216217287792
-0.171335758909
-0.135329059308
-0.106245294244
-0.0826415484418
-0.0634121665199
-0.0476800017061
-0.0347230612774
-0.0239273273553
-0.0147522659068
-0.00669286631454
12.1920122736
10.6641988077
10.5853018383
10.3832604989
9.94580899335
9.09597377686
7.5694971796
4.99342044509
0.877132172505
-5.36036979303
-14.2627282009
-26.0353818146
-40.1147992534
-54.9732723143
-68.7245410348
-80.250248872
-88.895539767
-90.6790114195
-85.8976097556
-79.0392090634
-67.9442388462
-53.5715791056
-38.897324068
-26.3442407707
-16.8562857337
-10.2826473368
-6.01096785439
-3.37230620217
-1.80560621295
-0.897929288251
-0.376638704469
-0.0784380236061
0.0865716530657
0.164477640906
0.187790158027
0.182852571979
0.166099768663
0.145753341495
0.125529290789
0.106977099058
0.0905951552525
0.0763634570411
0.0640185019202
0.0532052703379
0.043557814011
0.0347363756338
0.0264418086672
0.0184143191947
0.0104276828916
0.00229203754484
16.3179361011
14.8386537306
14.9695511326
15.0942105682
15.1045391551
14.8152621997
13.9229381494
11.9503944864
8.17974610993
1.60474233011
-8.97729760003
-24.4853162279
-44.4685383936
-65.807206109
-84.1833799735
-98.0285460747
-108.831719281
-115.565105307
-113.92547098
-106.824301265
-89.27821877
-64.7631531698
-41.3440721745
-23.4989259357
-11.7159302061
-4.6849022907
-0.854683676125
1.0003074089
1.73694253433
1.91522214821
1.8536783198
1.70487605261
1.53029713756
1.32950677367
1.12047416046
0.930107045394
0.767463774242
0.631426635077
0.518538570108
0.425215492012
0.348137639526
0.284338501328
0.231235083953
0.186622303242
0.148641619145
0.115733148871
0.086583394342
0.0600713099805
0.0352192099285
0.011159531725
20.4951749061
19.1479725376
19.5503605795
20.1085007483
20.7380986761
21.2766603502
21.4247542844
20.6475971009
18.0104565808
11.9398011784
0.0314140825631
-20.6399787635
-47.6413249814
-84.6749057565
-111.543550245
-125.563590449
-135.337993545
-148.229899046
-160.943309828
-162.175913566
-129.989637622
-82.0976275506
-42.2903065613
-16.9526187372
-3.20700405244
3.3216501479
5.85322278593
6.28327165706
5.73207946178
4.90459057319
4.12287377614
3.47509567524
2.95983850933
2.47203268212
2.01290905893
1.63715523563
1.33445416198
1.08853855162
0.88794712191
0.724085653398
0.589923910303
0.479615103618
0.388319249982
0.312048346614
0.24751960457
0.192019360078
0.143281760946
0.0993813841518
0.0586412772584
0.019563121672
24.5608837146
23.4285009565
24.1455279679
25.2181119164
26.6108289449
28.2291659153
29.8549850831
31.0181553573
30.7268874401
26.9214252134
15.4897151314
-4.22600935193
-53.8305312312
-101.238459044
-135.196409964
-144.028732303
-149.716434047
-200.317810712
-230.14093272
-297.55960615
-219.366953124
-108.661427308
-38.2607590508
-4.09710812378
9.6104395289
13.7554248495
13.8633531589
12.2213959134
9.87848767073
7.79955291081
6.15643244995
5.0921754777
4.16930554877
3.51238218374
2.78929270294
2.25742847441
1.8364203444
1.49432030565
1.21611225345
0.989786613206
0.805128685968
0.653692203702
0.528599792388
0.424269252224
0.336155178839
0.26052744578
0.194285228955
0.134799927693
0.0797839479783
0.0271877306845
28.3375832452
27.4906332176
28.5329969779
30.1484960037
32.3728503346
35.2255592839
38.6633207146
42.4683605354
45.9547588198
47.1888180567
46.3093360418
23.7317198432
-48.4060749381
-165.730132044
-176.851311638
-180.143325931
-242.402964559
-501.65982458
-364.947813045
-140.831662183
-22.7164155358
17.0682437356
26.1283294185
25.3066500034
21.8733507134
18.0828466823
13.3846135243
10.2287205866
7.18208758409
6.66112879456
5.51530173947
4.22917224432
3.33278498986
2.7613547465
2.25065060126
1.82929884761
1.48734377726
1.2099936699
0.984121590903
0.799041387671
0.646190548636
0.518696535593
0.411002406276
0.318565907467
0.237618425989
0.164969948269
0.0978454271943
0.0337553547968
31.6509930352
31.1362677395
32.4713135488
34.5827478507
37.5853579146
41.6358064828
46.9277930631
53.6586561862
61.8738863918
70.8645128121
81.2836652945
51.145834428
-24.4159640983
-334.925979695
-542.010626888
-409.881479819
-132.665920249
8.53252271073
43.3925308007
42.3902023924
35.3929065176
27.0641512207
19.8516064075
14.3349553103
10.1125725908
7.26486824062
6.54480893297
5.51886753215
3.53826769024
3.81695409847
3.17026906989
2.56088884138
2.07683546352
1.68846630245
1.37456476456
1.1190622
0.90956218485
0.736329058255
0.591616171748
0.469185369528
0.36394536655
0.271672328436
0.18878782466
0.112175158231
0.039033702809
34.3510661307
34.1828932379
35.7321391264
38.2092294271
41.7928432665
46.7552894677
53.5024523314
62.6387962033
75.0428746166
91.8268567621
113.825620691
133.647993485
-140.638370277
-350.354885243
-312.83402753
-110.465067726
22.6466232499
54.7420782276
50.192281586
39.9076237331
28.6387520914
12.524307873
10.9403531818
11.1085061644
8.88918970607
5.62171057788
6.43697343977
5.10885789523
4.33901840391
3.40567844203
2.73805134838
2.2216142143
1.80949720226
1.47622737119
1.20439869567
0.980930076671
0.795622937277
0.640373002865
0.508647041017
0.395103337437
0.295300211965
0.205465527578
0.122306579426
0.0428569606005
36.3319565026
36.4895851686
38.1380400804
40.7827527035
44.6291882634
49.9979836426
57.3826595215
67.5547816412
81.7422336831
101.872009641
126.476315056
155.653106149
-99.5114045626
-202.366583416
-356.390722093
-216.829649023
-40.0657091769
35.835430723
41.1828675472
33.3545813689
24.1388642199
13.5857057363
9.90550781192
11.9519205109
10.0550325723
6.09202958992
4.54153719063
3.21729529046
4.19042827997
3.38576791162
2.76264041799
2.25572082991
1.84553787793
1.51139639873
1.23734590898
1.01093832575
0.822314869018
0.663569684358
0.528285942584
0.411187881383
0.307867275119
0.214562170738
0.127976699219
0.0451302384496
37.5460538861
37.9782670329
39.594387034
42.1784835079
45.916654472
51.0916666606
58.1190982762
67.6012568366
80.3805259744
97.4526784139
113.312812981
129.804815814
138.758408492
-131.66746734
-273.303443449
-532.778666628
-397.96118623
-167.085265488
-16.3304896447
17.9508137112
21.2417421827
19.1223271552
17.2855787634
16.4992581835
12.7801923223
8.6274866617
7.38227748847
6.01964258445
4.68457375502
3.90100969495
3.22016759897
2.65323408847
2.18400831387
1.79832881942
1.48080159058
1.21820093879
0.999667929789
0.816372732718
0.661117399981
0.527991254247
0.412088431436
0.30927625927
0.216002490771
0.129136776115
0.0458332535459
38.0084990946
38.6439797283
40.1041772194
42.4161131304
45.7091388526
50.1619593491
55.9949221754
63.4298869579
72.5384303466
82.7091707778
90.881935294
107.381451684
52.3738216746
-99.6014058574
-140.097537477
-265.444096658
-459.032690746
-368.917028951
-192.691272212
-54.3177038474
-6.74460990374
7.37127158979
11.7407893334
13.0988400261
12.7694730939
10.5118177637
7.91688198171
6.3409001052
5.15430352606
4.17056951245
3.52329517483
2.92675497166
2.43017054774
2.01768622877
1.67465819959
1.38893297155
1.15008627749
0.949346950668
0.779406637012
0.634186431363
0.508612385453
0.398414599883
0.299953097963
0.210066986369
0.125946467012
0.0450180133715
37.7914194366
38.5514353336
39.761010768
41.6447949655
44.2589080064
47.6557034242
51.8389944455
56.659423442
61.567806079
65.0264219548
63.1480931752
47.3383685953
32.121589651
-50.4388841948
-119.392742208
-125.629291014
-123.669054856
-131.472363059
-63.6094594565
-189.126505058
-266.936230993
-238.534774397
-141.407038257
-63.0394527687
-23.0794206933
-4.93922327264
3.2172065023
6.73430133348
7.68268097154
7.0846967664
5.99728439555
5.02204745338
4.21698360318
3.55965092067
2.98615743944
2.50865927448
2.10771470959
1.7698324222
1.48452881143
1.24321111573
1.03851572568
0.864096778826
0.714509840321
0.585099545048
0.471884750916
0.371445111079
0.280812551197
0.197370074569
0.118761553097
0.0428045287351
37.0100023108
37.8197677383
38.7241675716
40.0978642466
41.9290491997
44.1624971421
46.6405564004
48.9899668134
50.4111152954
49.308235453
42.7559957221
26.2495573021
-4.27558061682
-35.8869425628
-81.3620207513
-99.7382548407
-102.05130223
-99.8497021459
-101.578926225
-134.567369173
-157.978562133
-142.617293074
-100.759105841
-59.2356743202
-30.5237252697
-13.5665873126
-4.18830142424
0.722618575013
2.97940425502
3.70191584609
3.68580558928
3.39547430411
3.03304326566
2.66662588943
2.31099859519
1.98837807594
1.70417988295
1.45606856307
1.24040096707
1.0532833981
0.890883930363
0.749573359218
0.626005587727
0.517151668624
0.420300659419
0.333035591372
0.253193233525
0.178817268301
0.108109140039
0.0393724751236
35.8045015785
36.6007338685
37.1857803684
38.0383039895
39.0976777654
40.2408633157
41.2296296504
41.6254972336
40.6665853754
37.1254576374
29.258752859
15.2024565373
-5.54377106563
-29.6753534492
-50.7150026598
-65.1764420921
-74.2266743996
-81.14794968
-90.4734657386
-102.217576136
-107.667357686
-97.9445844405
-76.3093287971
-52.2453174238
-32.4100726881
-18.4746237892
-9.50655060094
-4.07091920059
-0.980503713914
0.635295722507
1.39285407621
1.68721506355
1.74324898571
1.67766263477
1.55029626901
1.39866709747
1.24365498707
1.09497834377
0.956772671158
0.830434695392
0.715950938828
0.612564772122
0.519142890911
0.434384589724
0.356944460004
0.285498411331
0.218772162553
0.155547495993
0.0946544550651
0.0349499603074
34.3225350534
35.0566501614
35.340444672
35.7136810853
36.0897910224
36.3183117754
36.1479760401
35.1780724096
32.8097517348
28.2333037227
20.5340178695
9.05727621471
-5.90100488078
-22.5125845948
-38.0272416545
-50.5691888495
-60.0413918691
-67.539982408
-74.1448255582
-79.2643501796
-80.0090613906
-73.2291677932
-60.3344389148
-45.2942535015
-31.5341311613
-20.6626310687
-12.8251503515
-7.51272185352
-4.08019243603
-1.95195781991
-0.67874731627
0.0577581450998
0.465794743288
0.674451321653
0.762047944998
0.77810805875
0.753604427475
0.707082578236
0.649410837916
0.586928994835
0.523298756744
0.460563588729
0.3997695774
0.341339446808
0.285307053995
0.231467560818
0.179469436596
0.128869017217
0.0791634679856
0.0298003184851
32.7048653144
33.3426275737
33.3637429808
33.3298748025
33.1479640062
32.6698743672
31.6716478911
29.8333051259
26.733143945
21.8829141692
14.8417543818
5.4388300914
-5.94625913523
-18.2665729956
-30.1320002121
-40.4527548996
-48.8221690768
-55.3350777392
-60.0187488137
-62.5518738261
-62.1825401133
-57.4938756661
-49.191640342
-39.2445453343
-29.5196222564
-21.1792166558
-14.6283876387
-9.78629607737
-6.35940376933
-4.00962738943
-2.43430212618
-1.39469733727
-0.716977339152
-0.280865339972
-0.00571006924606
0.162783950348
0.260986357332
0.312897411854
0.334214699062
0.335231618167
0.322756160178
0.301330463777
0.274000110032
0.242803786512
0.209094831191
0.173756072839
0.137344544904
0.100189824215
0.0624618094183
0.0242083103085
31.0761505197
31.5952155317
31.4011987658
31.0426663725
30.4331345365
29.4435855534
27.893830094
25.5493158047
22.1336487094
17.3707530689
11.0682393524
3.23674099019
-5.79991336445
-15.395518543
-24.7435153111
-33.1377602255
-40.1369220132
-45.5118920172
-49.0371445657
-50.5286879869
-49.9668855943
-46.7011644462
-41.0925270922
-34.2277439425
-27.1962760263
-20.7933539949
-15.422405271
-11.1724341244
-7.94653536453
-5.56866674997
-3.85044653274
-2.62464810314
-1.75687626448
-1.14554340821
-0.716839866104
-0.41775784549
-0.21060676144
-0.0688499308259
0.0260910667996
0.0872519630168
0.123852767697
0.142481670226
0.147896916023
0.143567473358
0.132043671123
0.115215261205
0.0944943632324
0.0709479313241
0.0453949953861
0.0184657475179
29.5406200249
29.9272636255
29.5657588623
28.9612383756
28.0406450501
26.7005164302
24.8058254108
22.1949504032
18.6968033094
14.165864082
8.53586035499
1.88151195686
-5.53805921961
-13.2905230892
-20.8525168966
-27.726858225
-33.5222606848
-37.9504559217
-40.7662876437
-41.8476104792
-41.3550240282
-39.0320863317
-35.0908136821
-30.1776630336
-24.9652256812
-19.9968262506
-15.6085788932
-11.9416572868
-8.99833120077
-6.70278347571
-4.94778825547
-3.62363856022
-2.63269484883
-1.89473934644
-1.34702476234
-0.941569968231
-0.642283535656
-0.422326854985
-0.261869937207
-0.146264798792
-0.064638809501
-0.00886204694578
0.0271976475162
0.0482070522059
0.0577499726503
0.05860563052
0.0529572263014
0.0425456377321
0.0287886965906
0.0128576042974
28.1817387007
28.4275491122
27.9406155591
27.1572111704
26.0199361898
24.450744322
22.3537917046
19.6233767309
16.1599445663
11.8958026196
6.82824644791
1.05173614629
-5.22471572368
-11.6894188597
-17.9718908497
-23.7019514969
-28.5553500519
-32.2684897844
-34.6324864359
-35.5547976659
-35.1937151306
-33.4993443376
-30.6256911446
-26.9840623795
-23.0112139441
-19.0851240658
-15.4711662899
-12.3147352808
-9.66335556439
-7.49919486218
-5.76892567424
-4.40555425856
-3.34189303699
-2.51766639924
-1.8820913125
-1.39383194257
-1.02003658395
-0.73500496857
-0.518823302222
-0.356121263234
-0.235028127292
-0.146344702794
-0.0829051080077
-0.0390921575281
-0.0104718601409
0.00648718386878
0.0146312245037
0.0162909169856
0.0134129227426
0.00764964970139
27.0647660638
27.1633665574
26.5844245492
25.6746769933
24.3916888776
22.6791445884
20.4718026676
17.7039611682
14.3227217356
10.3060994965
5.68346430794
0.55285345545
-4.91197397686
-10.4708532994
-15.8427686093
-20.7399064432
-24.8979973837
-28.0950767278
-30.1624782707
-31.0233115362
-30.7876539616
-29.5158129294
-27.3408284387
-24.5405497465
-21.4133351919
-18.2305188438
-15.2005483984
-12.4571002795
-10.0658369126
-8.04086056801
-6.36293671302
-4.99492731666
-3.89287162389
-3.01302422883
-2.31546650414
-1.76555317565
-1.33420308747
-0.997540586557
-0.736246176166
-0.534821280881
-0.380883343941
-0.264549937133
-0.177923662227
-0.114673750869
-0.0697022980074
-0.0388733571272
-0.0187973695659
-0.00665356069883
-4.81215210981e-05
0.00307777542426
26.2418623265
26.1843741065
25.5366443708
24.5387685779
23.1604676707
21.3616159183
19.0986923017
16.3328023026
13.0402946172
9.22559031972
4.93419684122
0.262518464461
-4.6393142329
-9.574471027
-14.3161671834
-18.6306485224
-22.3000935662
-25.1396692202
-27.011369933
-27.8474636437
-27.7108468807
-26.7220085503
-25.0067797038
-22.7617572611
-20.2022320791
-17.532408961
-14.9204345599
-12.4862867054
-10.3016494154
-8.39764200012
-6.775765429
-5.41863419
-4.2987369563
-3.3847589207
-2.64547721286
-2.05195207216
-1.57856870862
-1.2033379387
-0.907773573806
-0.676551992581
-0.49708437972
-0.359084664011
-0.254168868553
-0.175501774006
-0.117498553004
-0.0755700438044
-0.0459082229763
-0.0253092407099
-0.0110231390165
-0.00066170034273
25.7632861792
25.5254995928
24.821502117
23.7625164824
22.3240286782
20.475400359
18.1866598277
15.4351743566
12.2143315992
8.54318974341
4.47522129567
0.104289774495
-4.43417541854
-8.96845934481
-13.3029535477
-17.2371149671
-20.5869945426
-23.1964458067
-24.9453242552
-25.7706909862
-25.7046011125
-24.9015892182
-23.4815566658
-21.5887044137
-19.3895032723
-17.0486918314
-14.7095289167
-12.4820679496
-10.4398272641
-8.62292906329
-7.04490393765
-5.70048683401
-4.57272281923
-3.63858896652
-2.87289736002
-2.25081803709
-1.74933066433
-1.34793124011
-1.02885697467
-0.777015608169
-0.579756088015
-0.426567521947
-0.30876448643
-0.219185831723
-0.151923232485
-0.102080185239
-0.0655613220486
-0.0388935880132
-0.0190658118204
-0.00341731021952
25.5985147951
25.2851486831
24.5690803937
23.513852858
22.0892087148
20.2651993
18.0190292288
15.3331855655
12.2066749604
8.66290988014
4.75481751344
0.569876552374
-3.76872537716
-8.10485063882
-12.2577977997
-16.0384382433
-19.2846775864
-21.8725784348
-23.6603628796
-24.5925509086
-24.6714723777
-24.0575050513
-22.8717621418
-21.2205536737
-19.2437523581
-17.0879207956
-14.8874361218
-12.7519726171
-10.760683871
-8.9620811927
-7.3786679244
-6.01334403235
-4.85583432142
-3.88809810688
-3.08837491287
-2.43399527107
-1.90312002109
-1.47574857903
-1.13418419438
-0.863149823946
-0.649684573854
-0.482915606534
-0.353787726875
-0.254798773017
-0.179730036468
-0.123402074072
-0.0814747730022
-0.0502622930214
-0.0265636669984
-0.00745523449195
-129.22194019
-142.195658684
-168.615661872
-99.0356169694
-119.029412936
-116.793900153
-152.697579463
-150.370438562
-177.648626347
-166.743948801
-153.688864593
-144.567958579
-167.051531291
-177.640922444
-154.345692333
-173.607507313
-167.509292848
-157.807585686
-150.692403488
-166.194306787
-173.905929419
-159.043734053
-164.293813582
-170.705706641
-149.683449556
-155.473573496
-174.538000009
-177.087749871
-72.8362328033
-22.6541032543
-95.3133048512
-43.1080251604
-72.6792189298
-23.3759978421
-105.126182951
-266.108570177
-241.378876213
-275.291267148
-186.167616728
-179.286042268
-188.06009655
-177.912707879
-198.589242259
-228.833626997
-191.275471412
-175.753694891
-203.593761778
-212.352307629
52.7732048899
109.537143322
85.4110337954
53.9823574921
44.8947420558
85.6987726175
104.925075653
21.8949276448
-10.2446442065
10.8453005723
-275.673591798
-278.552520168
-283.981418839
-275.361643809
-392.453659363
-246.881108898
-406.739264042
-308.282439705
-393.161689839
-283.468663934
-305.198488892
143.646547364
153.221525556
148.22290151
114.995710404
119.971257635
141.172611316
167.916090866
-168.440331877
-83.6740951297
-182.973107151
-150.305254692
-261.755092972
-87.1281466248
-137.929773303
171.503733218
151.372489132
176.174633325
152.572698537
167.290263448
154.194460785
159.964186178
-141.12308098
-124.232709409
-174.355458583
-96.0845534187
-127.844958499
-121.812646506
-180.159092045
132.569300047
91.2167997359
88.4738635439
144.28177748
153.225350273
114.62255575
95.1415816592
100.252157849
142.299040315
87.1226897862
-115.907369728
-108.48934316
-128.596668398
-89.2926710421
-191.06342857
-121.141869148
-223.251209321
-130.885185933
-179.118652817
-164.985041625
-183.166851927
13.1984751165
28.3645219769
-8.76649901354
70.0926636684
60.0615536732
17.3505204723
-1.94588794233
-95.1164699761
-173.317000734
-66.3520406004
-207.756567348
-120.226626059
-122.013969793
-121.005759855
-117.412508648
-102.103641274
-114.452842071
-81.8093719649
-97.9668964844
-93.9571783761
-101.877429106
-83.0306353947
-130.512282697
-27.4261013993
-90.9901796847
-62.5097530067
-130.379458463
-63.8149895417
-70.336597712
-125.778680234
-84.726023889
-91.8526400191
-108.445997159
-122.588639757
-100.082859103
-88.9211716591
-127.87576682
-100.537036014
-98.6329469343
-123.544656343
-124.31166269
-108.909448391
-97.8099497187
-113.13988184
-102.638441657
-103.907693614
-124.285031093
-117.471118434
-104.134163841
-97.2459654072
-9.2166568399
-8.5345892
-7.23989061394
-7.69728448919
-8.75167021793
-10.0126406131
-11.7604898886
-13.8567675798
-16.1122359214
-18.2783448352
-20.1956276303
-21.9159391437
-23.5991401654
-25.341348961
-27.1083242765
-28.7584388349
-30.1024935904
-30.9606467554
-31.2032228867
-30.7724715028
-29.6881086616
-28.0592375098
-25.9978424837
-23.6537622551
-21.1669722081
-18.663675834
-16.2428832324
-13.978059567
-11.9171264279
-10.0824476257
-8.4754555028
-7.08626742843
-5.89766508508
-4.88960421897
-4.04055707986
-3.3292035886
-2.73569091249
-2.24203353278
-1.83230835611
-1.49266070783
-1.21115062788
-0.977567157493
-0.783227250005
-0.620734240521
-0.483801277358
-0.367040654464
-0.265789074473
-0.175974216154
-0.0939761679596
-0.0168701138389
-8.63495885787
-8.11230933244
-7.40897370293
-7.55991709587
-8.41667712352
-9.63748773252
-11.3913130229
-13.6854450941
-16.5011077697
-19.2871238951
-21.3339191126
-22.9719113737
-24.5551933964
-26.1600630579
-27.8182774362
-29.400508653
-30.7136349661
-31.5654786685
-31.8110302699
-31.3787520452
-30.2794416182
-28.5996689448
-26.4742527851
-24.0537291986
-21.4891099155
-18.9139028637
-16.4328397769
-14.1199596168
-12.0209478361
-10.1563548817
-8.52733432479
-7.12245573696
-5.92318013694
-4.9075008817
-4.05376912087
-3.33903211236
-2.74326327883
-2.2481328047
-1.8374765126
-1.49726743407
-1.21545536518
-0.981768427445
-0.787481498506
-0.625190747672
-0.488607235951
-0.372355658544
-0.271798592282
-0.182883448763
-0.102004209153
-0.0256671730973
-7.05682291485
-6.85572487013
-6.72444256975
-7.00625553253
-7.79471243806
-9.05318638645
-10.8172208413
-13.1253806009
-16.0006594898
-19.4379656417
-23.3778204236
-26.7652143113
-28.0513877139
-29.1010683846
-30.4457631627
-31.7530904711
-32.834529123
-33.466293234
-33.4819041078
-32.7964384605
-31.4177561341
-29.4383946094
-27.0097339329
-24.3084417732
-21.5063603525
-18.7486346678
-16.1425990557
-13.7568151183
-11.6262980828
-9.76015593683
-8.14966478894
-6.77545535853
-5.61298653177
-4.63619602497
-3.81966067249
-3.13981406623
-2.57547140441
-2.10800777827
-1.72131261705
-1.40160770457
-1.13719833923
-0.918206763347
-0.73630677626
-0.584476002552
-0.456773114017
-0.348137288681
-0.254209903738
-0.171178448341
-0.0956311814787
-0.0241984061351
-5.15525287771
-5.16247660253
-5.30869886617
-5.75839557193
-6.6179167062
-7.94346419684
-9.78953485622
-12.2076600055
-15.2361316664
-18.8856508401
-23.1261591746
-27.8849332711
-32.5080392092
-34.3205324172
-34.756452402
-35.6432447168
-36.3427289861
-36.6132516933
-36.2454418921
-35.1309483225
-33.2729387738
-30.781404612
-27.8433208456
-24.6771209823
-21.4883583303
-18.4396967389
-15.6393524952
-13.1443585765
-10.9717098006
-9.11136163454
-7.53767016305
-6.21792109805
-5.11787872441
-4.2049333731
-3.4495923999
-2.82597797678
-2.31182846436
-1.88824642712
-1.53934166563
-1.25183303831
-1.01465784537
-0.818610877817
-0.656023260473
-0.52048603715
-0.406613965902
-0.309842494505
-0.226252129943
-0.152417451971
-0.0852708619053
-0.021767899719
-2.88104475043
-2.99838395097
-3.29254266978
-3.86508766109
-4.81367244269
-6.22603977697
-8.18825970228
-10.7787996257
-14.0600563355
-18.063097256
-22.7653646394
-28.073737597
-33.8272502214
-39.2770258831
-41.292465724
-41.2583158481
-41.4633761583
-41.2202395633
-40.2966756503
-38.5433818261
-35.9561130447
-32.6783494964
-28.9631038499
-25.1011904159
-21.3512082271
-17.8978322799
-14.8429886751
-12.2193550908
-10.0124400943
-8.18161868421
-6.67587626776
-5.44364376674
-4.43784235543
-3.61777961952
-2.94928636621
-2.40408445595
-1.95900245353
-1.5951766281
-1.2973085768
-1.05299901758
-0.852179859338
-0.686644467313
-0.549665983291
-0.435692454386
-0.340102343033
-0.259004131251
-0.189071571166
-0.127405813186
-0.0714153197981
-0.0185066328473
-0.201603042234
-0.36626877023
-0.724663285836
-1.35566527097
-2.35524820588
-3.8320027582
-5.90623495032
-8.69813837772
-12.3124497874
-16.8166159677
-22.2052369129
-28.3654849806
-35.0632191541
-41.9701624881
-47.8564556183
-49.2604674789
-48.5488918694
-47.6626981113
-45.980532881
-43.32427498
-39.6674051035
-35.215496045
-30.3472030374
-25.4820696579
-20.9601669152
-16.9865802077
-13.6369219518
-10.8941169015
-8.6897517076
-6.93640407856
-5.54772316745
-4.44819273892
-3.57597714722
-2.88209840325
-2.3281905517
-1.88424402674
-1.52687467051
-1.2379352327
-1.00335213351
-0.812163022503
-0.655760465681
-0.527317541031
-0.421357493328
-0.333433849409
-0.259889867461
-0.197672705987
-0.144188514705
-0.097185755155
-0.0546572005928
-0.0145555063157
2.8895505799
2.72368459359
2.37102691812
1.75811049644
0.781831408996
-0.691165272382
-2.82436806884
-5.79954320575
-9.79464188159
-14.9489191247
-21.3026891869
-28.7263068869
-36.8803305643
-45.2511026597
-53.2347149406
-58.6662262141
-58.476374669
-56.5560649635
-53.9049146923
-50.0048662175
-44.7763630438
-38.5466968762
-31.9529918211