/*--------------------------------*- C++ -*----------------------------------*\
| =========                 |                                                 |
| \\      /  F ield         | OpenFOAM: The Open Source CFD Toolbox           |
|  \\    /   O peration     | Version:  2506                                  |
|   \\  /    A nd           | Website:  www.openfoam.com                      |
|    \\/     M anipulation  |                                                 |
\*---------------------------------------------------------------------------*/
FoamFile
{
    version     2.0;
    format      ascii;
    arch        "LSB;label=32;scalar=64";
    class       surfaceScalarField;
    location    "1";
    object      phi;
}
// * * * * * * * * * * * * * * * * * * * * * * * * * * * * * * * * * * * * * //

dimensions      [0 3 -1 0 0 0 0];

oriented        oriented;

internalField   nonuniform List<scalar> 
217203
(
0.0103712873039
-0.802483293501
0.801005677654
-0.00889367138223
0.488441159162
-0.481879101223
0.00627245124986
-0.0128345091303
0.502729024774
-0.501483313187
0.0375202584579
-0.0387659699948
0.533881793785
-0.529308957229
0.02187781304
-0.0264506495496
0.542605486762
-0.543353844721
0.0153868674465
-0.0146385094426
0.544451819272
-0.54272813507
0.0278079972154
-0.0295316813747
0.585087795657
-0.576289592131
0.0273356934106
-0.0361338968971
0.686747270943
-0.672010217047
0.0265631927801
-0.0413002466389
0.807882768708
-0.79307855308
0.0253955967914
-0.0401998123849
0.919591387474
-0.906033071809
0.0266031654409
-0.0401614810668
1.03142493471
-1.01687131693
0.0287949177277
-0.0433485354779
1.15376839135
-1.13806155527
0.0302266671882
-0.0459335032407
1.28056957154
-1.26473415769
0.0303900048497
-0.0462254186751
1.40534381076
-1.3900441345
0.0291042273725
-0.0444039036051
1.52297717509
-1.50883822844
0.0265603147019
-0.0406992613206
1.62921930683
-1.61668060286
0.0231496235517
-0.0356883274946
1.72139225482
-1.71071267046
0.0192268956592
-0.0299064799795
1.79808138789
-1.7893740762
0.0150956164924
-0.0238029281373
1.8589378294
-1.85219418219
0.0110112041484
-0.0177548513077
1.90450078044
-1.89960849797
0.00719745823408
-0.012089740668
1.93605099325
-1.93281620428
0.00382941132385
-0.00706420025707
1.95537480116
-1.95355988593
0.000955823590028
-0.00277073879713
1.96535281485
-1.96451515264
-0.00138083353405
0.000543171341088
1.96845406046
-1.96836902072
-0.00279161375732
0.00270657404341
1.96665289472
-1.96707509282
-0.00341364368765
0.00383584180804
1.96171707341
-1.96244906906
-0.00343715447319
0.00416915014109
1.95499517969
-1.95588967357
-0.00302596573876
0.00392045963284
1.94750545541
-1.94844819538
-0.00238961774106
0.00333235772299
1.94010333631
-1.94099263941
-0.00174519996036
0.00263450307381
1.93345433818
-1.9342268223
-0.00115832607621
0.00193081021666
1.92790954996
-1.9285325407
-0.000644066540891
0.00126705729951
1.92361910688
-1.92408339196
-0.000220305071086
0.000684590165196
1.92058028088
-1.92089236402
0.000102846246467
0.000209236927336
1.91868246195
-1.91886333373
0.000320411098115
-0.000139539293169
1.91771755772
-1.91779170184
0.000469497216191
-0.000395353079222
1.91754432636
-1.91752570715
0.000572596751195
-0.000591215938704
1.91805406274
-1.91795627601
0.000640215119009
-0.000738001835973
1.9191346799
-1.91897208722
0.000680090577836
-0.000842683235765
1.92066718072
-1.92045479123
0.000697537363784
-0.000909926837858
1.92253314031
-1.92228539665
0.00069594847073
-0.000943692112252
1.92462238927
-1.92435237356
0.000679551811199
-0.000949567506084
1.92683803959
-1.92655702577
0.000652675230741
-0.000933689051778
1.92910051757
-1.92881739568
0.00061726118888
-0.000900383066892
1.93134653279
-1.93106843549
0.000577972599761
-0.000856069890919
1.93352848121
-1.93326054253
0.000535007454022
-0.00080294612567
1.93561069572
-1.93535678284
0.000491449604164
-0.000745362488569
1.93756895815
-1.93733160477
0.000447600811984
-0.00068495421141
1.93938546255
-1.9391666173
0.000403930432039
-0.000622775695587
1.94104912666
-1.94084970703
0.000361138490041
-0.000560558104408
1.94255437968
-1.94237507856
0.00031846352516
-0.000497764652007
0.00687664959424
-1.17931547759
1.17929632323
-0.0068574951377
-1.07387488324
-0.0294983744432
0.029590834945
1.07378242279
-1.07353400024
-0.0416719700938
0.0412736960678
1.07393227432
-1.0828136122
-0.0441141631966
0.0419264375333
1.08500133791
-1.10407794439
-0.0468009560401
0.0438294503429
1.10704945013
-1.12915151266
-0.0492770315832
0.0457911311497
1.13263741314
-1.1591932139
-0.0489649350756
0.0449036298997
1.16325451912
-1.19351135872
-0.0458101774772
0.0411792899447
1.1981422463
-1.23219109609
-0.0394950089176
0.0371618245317
1.23452428051
-1.15547158664
-0.0730351436893
0.0942894308453
1.13421729951
-1.04724583914
-0.163281460512
0.1604324481
1.05009485158
-1.16131785917
-0.185873188238
0.163576767473
1.18361427995
-1.32026788389
-0.171551011308
0.155631746875
1.33618714835
-1.44229545581
-0.164571156828
0.149294625364
1.4575719873
-1.56103090123
-0.148655266139
0.134762597875
1.57492356953
-1.66559028137
-0.1291158044
0.117099568479
1.67760651732
-1.75475543127
-0.107424930755
0.0974307223268
1.76474963973
-1.82746885581
-0.0851204620671
0.0771977322336
1.83539158567
-1.88376904382
-0.0634663818097
0.0575491107823
1.88968631488
-1.92454311664
-0.0435601438361
0.0394819296083
1.92862133091
-1.95142552538
-0.0262553381024
0.0237668784422
1.95391398507
-1.96662977235
-0.0121241386542
0.010920506725
1.96783340432
-1.97265590009
-0.00145723831711
0.00122566816763
1.97288747027
-1.9719645994
0.00581709598011
-0.00537524405259
1.97152274751
-1.96682515084
0.010104905765
-0.00925142409862
1.96597166921
-1.95917040068
0.0119972714703
-0.0109442584628
1.9581173877
-1.95050744253
0.0121218186073
-0.0110277048083
1.94941332876
-1.94193186364
0.011081476033
-0.0100566553091
1.94090704294
-1.93417725956
0.00938441149662
-0.00849755728577
1.93329040538
-1.92766453128
0.00739717174625
-0.00668184472902
1.9269492043
-1.9225698699
0.00536730138446
-0.00483269830157
1.92203526686
-1.91890742827
0.00346001683905
-0.00309968536372
1.91854709682
-1.9165887344
0.0017807865054
-0.00157886871708
1.91638681666
-1.91546917294
0.000365163017667
-0.000301879205387
1.91540588917
-1.91537755341
-0.000799579065853
0.000747787653055
1.91542934486
-1.91612667946
-0.00172014194003
0.00157678202074
1.9162700394
-1.91752802769
-0.00241370122997
0.00220150478476
1.91774022417
-1.91940645406
-0.00290259568551
0.00264213199559
1.91966691778
-1.92160853562
-0.00321617938976
0.00292468693465
1.92190002811
-1.92400797497
-0.00338499442533
0.00307647246649
1.92431649696
-1.92650351961
-0.00343873588125
0.003124141893
1.92681811362
-1.92901684971
-0.00340410210651
0.00309179967678
1.92932915217
-1.93148891887
-0.00330380361179
0.00299999545631
1.93179272705
-1.93387648674
-0.00315616953502
0.00286529740467
1.9341673589
-1.93614890681
-0.00297566309172
0.00270085442707
1.9364237155
-1.93828486097
-0.00277327994225
0.00251664458093
1.93854149635
-1.94027020403
-0.00255718104649
0.00232009873503
1.94050728637
-1.9420959202
-0.00233267013305
0.00211597198222
1.94231261837
-1.94375670632
-0.0021035344645
0.00190770439271
1.9439525364
-1.94524938648
-0.00187225408348
0.00169761547757
1.94542402509
0.00702358289543
-1.37354125221
1.37359785973
-0.00708019032756
-1.31168329251
-0.0299222639549
0.0297155758633
1.31188998065
-1.31477831546
-0.0463627273312
0.0456412844584
1.31549975839
-1.32355056806
-0.0584005465159
0.0567869249294
1.3251641897
-1.33948662142
-0.0679246481838
0.0654827076679
1.341928562
-1.36146029819
-0.0753854958854
0.0722484584728
1.36459733565
-1.38898604793
-0.0803117257248
0.0764787462972
1.39281902741
-1.42210316974
-0.0823624967275
0.0778286949354
1.42663697158
-1.46072480624
-0.081429659731
0.0762327636757
1.46592170233
-1.50433974677
-0.0777552907748
0.071993604205
1.51010143336
-1.55242937956
-0.0710796496234
0.0666201445209
1.55688888469
-1.49063088433
-0.13219406247
0.158270726229
1.4645542206
-1.32374238482
-0.304522211959
0.304353483074
1.32391111373
-1.44685954439
-0.302227594118
0.279585554193
1.46950158435
-1.58848701809
-0.259774764972
0.24643493797
1.60182684513
-1.69351437694
-0.226954625636
0.21443640188
1.70603260073
-1.7848398377
-0.187735827541
0.177674790739
1.79490087454
-1.85750232569
-0.148038851707
0.140231145141
1.86531003229
-1.91222217275
-0.109597392811
0.103977508046
1.91784205755
-1.95007949029
-0.0743801421729
0.0707451975387
1.95371443496
-1.97304086626
-0.043957871619
0.042009738835
1.97498899905
-1.98373582639
-0.0193652988951
0.0187444013911
1.98435672394
-1.98512573483
-0.00099734897598
0.00132887048265
1.98479421337
-1.98013358709
0.0113979210173
-0.0104599876343
1.97919565376
-1.97135009945
0.0185846794231
-0.0173315157154
1.97009693578
-1.96086862773
0.0216361303796
-0.0202897406856
1.95952223808
-1.95021435564
0.0216797254328
-0.020391487294
1.94892611755
-1.94038333903
0.0197491995604
-0.0186113995074
1.93924553901
-1.93194785705
0.0167003302009
-0.0157605316462
1.93100805854
-1.92516769456
0.0131687394428
-0.0124419671512
1.9244409223
-1.92008529025
0.00957992826386
-0.00906122681623
1.91956658884
-1.91661249132
0.00621132173633
-0.00588300825844
1.91628417786
-1.9145833536
0.0032300821727
-0.00306846127999
1.91442173276
-1.91379860166
0.000697219596739
-0.000676592911012
1.91377797502
-1.91405074672
-0.00138764060834
0.00129373450808
1.91414465288
-1.91512583883
-0.00302630775427
0.00284432298687
1.91530782364
-1.91681932733
-0.00424981868113
0.00400403108478
1.91706511497
-1.91894704373
-0.00510195224686
0.00481345633279
1.91923553968
-1.92135421734
-0.00564141637988
0.00532733839929
1.92166829535
-1.92391642508
-0.00592589386641
0.00559979385201
1.92424252513
-1.92653693455
-0.00601015243261
0.00568231559552
1.92686477142
-1.92914319276
-0.00594230720155
0.00562034513746
1.92946515486
-1.93168208583
-0.0057622255952
0.00545161185801
1.93199269959
-1.93411595626
-0.00550185678305
0.00520639683087
1.93441141624
-1.93641896906
-0.00518601880437
0.00490826432648
1.93669672357
-1.93857415181
-0.00483342927831
0.00457501210432
1.93883256901
-1.9405707291
-0.00445767369377
0.00421961119992
1.94080879162
-1.94240234836
-0.00406801686133
0.00385084243784
1.94261952281
-1.94406579631
-0.00367060967406
0.00347460383502
1.94426180216
-1.94555919833
-0.00326897608507
0.00309433314844
1.94573384126
0.00762826305624
-1.50553027312
1.50562485369
-0.00772284355683
-1.4627180376
-0.0325905986598
0.0321819713448
1.46312666497
-1.46746294105
-0.0529008123209
0.0520266162389
1.46833713719
-1.47664145412
-0.0707911073281
0.069266613249
1.47816594826
-1.49136216551
-0.0864657441602
0.0842118956001
1.49361601413
-1.51200187691
-0.0997722476087
0.0967710715923
1.51500305298
-1.53861456289
-0.110509211756
0.106758450295
1.54236532441
-1.57129081872
-0.118478591819
0.11395926144
1.57581014914
-1.61010025609
-0.123230497429
0.117960704286
1.61537004927
-1.65463327443
-0.124458199047
0.118531480965
1.66055999256
-1.70389434295
-0.121911241103
0.115498601363
1.71030698271
-1.75692596394
-0.114652739983
0.107728822019
1.76384988193
-1.77319964599
-0.135243721111
0.148374269185
1.76006909794
-1.58302059314
-0.350021044632
0.369194801723
1.56384683607
-1.60101272478
-0.404658755929
0.383468991147
1.62220248959
-1.74428419339
-0.323512027491
0.311519713902
1.75627650701
-1.8330531804
-0.269403637553
0.259059094838
1.84339772315
-1.90602283334
-0.209603832736
0.20202722904
1.91359943706
-1.95799407527
-0.15246247368
0.147344960344
1.96311158863
-1.99092236894
-0.100337080433
0.0974507294064
1.99380871999
-2.00726759923
-0.0557420336409
0.0547031163117
2.0083065166
-2.01041933664
-0.0202843347492
0.0206289795969
2.01007469184
-2.00418127408
0.00552404182839
-0.0042727209356
2.00292995323
-1.99222976134
0.0222540993882
-0.0205227768848
1.99049843888
-1.97767522555
0.0312600964124
-0.029383297893
1.97579842707
-1.96282807333
0.0343164167362
-0.0325236267488
1.96103528339
-1.94917698288
0.0332226366933
-0.0316472551531
1.94760160138
-1.93751525192
0.0295499111416
-0.0282518262175
1.93621716704
-1.92814099045
0.0245242267111
-0.0235160902117
1.927132854
-1.92104844286
0.0190214165988
-0.0182884469571
1.92031547325
-1.91606337537
0.0136014242865
-0.0131147963813
1.9155767475
-1.91293471212
0.00861103405244
-0.00833734534313
1.91266102344
-1.91138745516
0.00424714038632
-0.00415118653079
1.91129150135
-1.91114479676
0.000569450347436
-0.000618159221676
1.91119350569
-1.91194799253
-0.00242418785846
0.00226289163427
1.91210928881
-1.91354418472
-0.00474342279593
0.00449982225628
1.9137877853
-1.91570247062
-0.00644238619867
0.00614330719502
1.91600154967
-1.91822519219
-0.00759836778512
0.00726560272013
1.91855795729
-1.92095477771
-0.00830482167306
0.00795543500615
1.92130416441
-1.9237706129
-0.0086515243051
0.00829815340074
1.92412398382
-1.9265845011
-0.00872053637402
0.00837227872067
1.92693275879
-1.92933380616
-0.00858187819726
0.00824506573639
1.92967061866
-1.93197543749
-0.00829222818145
0.0079711493796
1.93229651631
-1.93448068557
-0.00789621939169
0.00759364059148
1.9347832644
-1.93683146177
-0.00742802424339
0.0071456345137
1.93711385154
-1.9390169962
-0.00691294499999
0.00665170176216
1.93927823947
-1.94103153238
-0.00636913235783
0.00612947148466
1.94127119327
-1.94287298084
-0.00580893900281
0.00559093931614
1.94309098055
-1.94454135589
-0.00524032788712
0.00504391425096
1.94473776954
-1.9460374377
-0.00466732632982
0.00449238621015
1.94621237781
0.00844937060052
-1.6056028392
1.60571225714
-0.00855878844893
-1.57322162269
-0.0362713778752
0.0357838976031
1.57370910304
-1.57857979682
-0.0601974172327
0.0592666647873
1.57951054934
-1.5879517895
-0.0828994791452
0.0813936833241
1.58945758539
-1.60231030058
-0.104158990673
0.10197261053
1.60449668079
-1.62242028758
-0.12351817546
0.120567936745
1.62537052637
-1.64881843504
-0.140502939543
0.136744287484
1.65257708717
-1.68181349866
-0.154947637012
0.150342357928
1.68641877781
-1.7216733602
-0.166178411502
0.160710262029
1.72714150973
-1.76827593623
-0.173246644638
0.166980432636
1.77454214829
-1.82076858888
-0.17523704641
0.168332877508
1.8276727578
-1.8775348914
-0.171109212091
0.163826311532
1.88481779199
-1.93679352674
-0.159204385639
0.151629911769
1.94436800064
-1.96513792916
-0.173052149606
0.182727469841
1.95546260895
-1.79128087466
-0.403424587752
0.424588744081
1.77011671836
-1.78466360523
-0.456057753142
0.437750605078
1.80297075332
-1.90669278517
-0.34733400445
0.337798309311
1.91622848036
-1.97501126641
-0.269496948337
0.262066071001
1.98244214377
-2.02329544195
-0.190201655506
0.185854028078
2.02764306941
-2.04875664867
-0.118624825992
0.116878942969
2.0505025317
-2.05500518631
-0.0582056278691
0.0585537140581
2.05465710017
-2.04669761899
-0.011371049367
0.0131713060924
2.04489736231
-2.02906520855
0.0212911036372
-0.0186851528278
2.02645925779
-2.0069935222
0.0409460317424
-0.0380823480329
2.00412983853
-1.98433522181
0.0499575323053
-0.0472264026781
1.98160409221
-1.96363291823
0.0511821811548
-0.0488106126686
1.96126134979
-1.94620023621
0.0473572939596
-0.0454357158077
1.94427865811
-1.93242303877
0.040708561381
-0.0392403397414
1.93095481717
-1.92213439687
0.0328477876805
-0.0317875578832
1.92107416712
-1.91490680139
0.0248185750971
-0.0241070017856
1.91419522812
-1.91025999084
0.017233359705
-0.0168113869009
1.90983801809
-1.90774115651
0.0104310200881
-0.0102455070917
1.90755564355
-1.90694355469
0.00459446559499
-0.00459739648239
1.90694648563
-1.90750538849
-0.000253582541002
0.000103573249263
1.90765539782
-1.90910684499
-0.00412934614147
0.00387138928186
1.90936480189
-1.91144462987
-0.00706528393051
0.00673494078838
1.91177497304
-1.91425258641
-0.00915297073003
0.00878013814932
1.91462541903
-1.91731699682
-0.0105197308441
0.0101270139074
1.91770971379
-1.92047997884
-0.0113039247078
0.0109075472059
1.92087635638
-1.92363086279
-0.0116340075457
0.0112449849692
1.9240198854
-1.9266958473
-0.0116217143193
0.0112471780399
1.92707038362
-1.92962816247
-0.0113592027778
0.0110035474497
1.92998381783
-1.93239953518
-0.0109187925596
0.0105845751311
1.93273375263
-1.93499397145
-0.0103558130634
0.0100444216493
1.93530536289
-1.93740334833
-0.00971201720199
0.00942401934216
1.93769134622
-1.93962528001
-0.00901783390566
0.00875324831526
1.93988986563
-1.94166071877
-0.00829457593957
0.00805312401811
1.94190217072
-1.94351275395
-0.00755674345849
0.0073379203892
1.94373157704
-1.94518574593
-0.00681325524815
0.00661650131594
1.94538249987
-1.9466839885
-0.00606808609099
0.00589289544461
1.94685917914
0.00933045529361
-1.68618742072
1.68629613036
-0.00943916483231
-1.66021606754
-0.0402455499771
0.0397497791604
1.66071183843
-1.66558232501
-0.0676243407312
0.0667072651919
1.66649940062
-1.67471063734
-0.0947483410842
0.0932941769969
1.67616480149
-1.68856975604
-0.121354364046
0.119238502646
1.69068561751
-1.70814819492
-0.146901036753
0.144002605168
1.71104662658
-1.73435059416
-0.170661191646
0.166882942112
1.73812884377
-1.76786792614
-0.192354936492
0.187616808387
1.77260605431
-1.80931919905
-0.211169539554
0.205406011068
1.81508272759
-1.8590099913
-0.225528029657
0.218749979015
1.86578804199
-1.91641720789
-0.2336071366
0.225954441916
1.9240699026
-1.97993761965
-0.23340316825
0.225159227428
1.98818156049
-2.04681052343
-0.223051389968
0.214638934073
2.05522297935
-2.11410299874
-0.200304111394
0.192220368697
2.12218674146
-2.13217448658
-0.22560859434
0.238222006944
2.119561074
-1.96271884814
-0.467481453492
0.483072366954
1.94712793471
-1.98257880033
-0.452168887499
0.436576385123
1.99817130274
-2.07094875055
-0.323463152897
0.317393352545
2.07701855092
-2.11147955452
-0.220648601617
0.217272432678
2.11485572348
-2.12626436781
-0.125543275543
0.125467982926
2.12633966044
-2.11764385684
-0.0467564000472
0.049153728425
2.11524652851
-2.09247559286
0.0120396374331
-0.00811594270841
2.08855189818
-2.05841821596
0.0503198123343
-0.045797438703
2.05389584237
-2.02229559371
0.0704334626068
-0.0660430556638
2.01790518681
-1.98898899639
0.0765082932467
-0.0726991808513
1.98517988403
-1.96114972847
0.0731137356286
-0.0700764084638
1.95811240136
-1.93959142053
0.0642969028187
-0.0620339796476
1.93732849741
-1.92391415957
0.0530626443446
-0.0514717812662
1.92232329654
-1.91315792476
0.0413467330774
-0.0402965574968
1.91210774921
-1.9062886275
0.0302040434153
-0.0295729802315
1.90565756436
-1.90242502693
0.0201318950966
-0.0198256420643
1.90211877395
-1.90090236503
0.011349323687
-0.0112972724245
1.9008503138
-1.90120419391
0.00396670674559
-0.00411057636259
1.90134806357
-1.9028979138
-0.00205869776891
0.00176826032412
1.9031883513
-1.90559536146
-0.00675931412987
0.00637033787567
1.90598433775
-1.90892706025
-0.0102042555875
0.00975948163712
1.90937183424
-1.91258157493
-0.0125466279429
0.0120793307094
1.9130488722
-1.91633125861
-0.0139871825754
0.0135198935738
1.91679854764
-1.92002680336
-0.0147242922549
0.01427115038
1.92047994527
-1.92357789012
-0.0149315606947
0.0145005879177
1.92400886293
-1.92693556073
-0.0147523471226
0.0143475734996
1.9273403344
-1.93007672308
-0.0142993749823
0.0139224701748
1.93045362793
-1.93299301881
-0.0136573622473
0.0133086974304
1.93334168365
-1.93568439882
-0.0128894865747
0.0125686743451
1.93600521108
-1.93815556793
-0.0120422091185
0.0117484548139
1.93844932226
-1.94041380177
-0.0111491429011
0.0108814000452
1.94068154464
-1.94246797602
-0.0102331480623
0.00999026311642
1.942710861
-1.94432736783
-0.00930943002644
0.00909023533255
1.94454656255
-1.94600123038
-0.00838705744294
0.00819043612289
1.94619785171
-1.94749802138
-0.00746924962498
0.00729422149517
1.94767304951
0.0101600366662
-1.75360670921
1.75370236617
-0.0102556935378
-1.73180902188
-0.0440471082556
0.0435953206175
1.73226080956
-1.7366905703
-0.0746341114173
0.0738005242509
1.73752415753
-1.7450103796
-0.105890040838
0.104557780793
1.74634263971
-1.75780631899
-0.137705566694
0.135731688025
1.75978019772
-1.77627305393
-0.16958678494
0.166814809899
1.77904502903
-1.80169265563
-0.200732078633
0.197001207551
1.80542352677
-1.83529287668
-0.230735019344
0.225897867497
1.84013002859
-1.878281442
-0.258730943327
0.252637148109
1.88437523729
-1.93168036739
-0.28255964317
0.275128851228
1.93911115939
-1.99561714372
-0.299206575233
0.290522771318
2.00430094763
-2.06867563314
-0.305197877492
0.295567179333
2.07830633132
-2.14751616235
-0.297113107829
0.287092577634
2.15753669258
-2.22702030555
-0.272696251574
0.262987351312
2.23672920583
-2.3012934918
-0.231827869836
0.224556909369
2.30856445229
-2.28648119093
-0.293136785817
0.311060807857
2.26855716892
-2.13496320461
-0.503985142719
0.509437139239
2.1295112081
-2.18785554129
-0.384748837673
0.374811443071
2.1977929359
-2.22846627842
-0.240607213245
0.23911339426
2.22996009742
-2.22784714344
-0.115751182629
0.118117875201
2.22548045086
-2.19724337032
-0.0147663709124
0.0201949741086
2.19181476716
-2.14725882356
0.0565273830726
-0.0495167715331
2.14024821208
-2.08972687364
0.0979019678691
-0.0907152012042
2.08254010702
-2.03458455827
0.114147073356
-0.107775941167
2.02821342612
-1.98799891818
0.112544549293
-0.107478348137
1.98293271708
-1.95231479394
0.10041762054
-0.0967247300588
1.94862190353
-1.92711360885
0.0835727488983
-0.0810772089148
1.92461806893
-1.91055394372
0.0658433964388
-0.0642703087027
1.90898085604
-1.9004202447
0.0492537666104
-0.0483385590345
1.89950503717
-1.89480188413
0.0345486593696
-0.0340917662101
1.89434499101
-1.89237149692
0.0218086911974
-0.0216855398021
1.89224834557
-1.89233051321
0.0109585425489
-0.0110943870707
1.89246635778
-1.89414947928
0.00199121630287
-0.002326280693
1.89448454373
-1.89737091632
-0.00519581550073
0.00471685431748
1.89784987757
-1.90152913968
-0.0106175533667
0.0100563491153
1.90209034399
-1.90614780347
-0.0143941752011
0.0138045120122
1.9067374667
-1.91085467191
-0.0167866240038
0.0162048971012
1.91143639886
-1.91541952138
-0.0181068262962
0.0175530333775
1.91597331433
-1.91972244861
-0.0186302517897
0.0181138404965
1.92023885995
-1.92371323624
-0.0185815759082
0.0181053976161
1.92418941456
-1.92738256284
-0.018133183207
0.0176967541086
1.92781899197
-1.93073971769
-0.0174125034412
0.0170140245846
1.93113819658
-1.93380106658
-0.0165113184041
0.0161485213291
1.93416386369
-1.93658546888
-0.0154963914809
0.0151668396925
1.9369150207
-1.93911218921
-0.0144152063863
0.0141165726864
1.93941082294
-1.94139934078
-0.013301844166
0.013031920389
1.94166926457
-1.94346422254
-0.0121790203906
0.0119357245467
1.94370751841
-1.94532288816
-0.0110610385341
0.0108424572236
1.94554146949
-1.94698995045
-0.0099559751417
0.00976040800799
1.94718551759
-1.9484782538
-0.0088657236648
0.00869167458756
1.94865230287
0.010843104471
-1.81151743884
1.81158858911
-0.0109142545962
-1.7924693966
-0.0472815078944
0.0469222419623
1.79282866259
-1.79637985527
-0.0806457302747
0.0799712377737
1.79705434785
-1.80320209378
-0.115631364201
0.114520756542
1.8043127015
-1.81405316585
-0.152404053843
0.1506960922
1.81576112755
-1.83034203229
-0.190665763282
0.188164959956
1.83284283565
-1.85373916803
-0.229761555848
0.22624413354
1.8572565904
-1.88614146304
-0.26935365602
0.264561259922
1.89093385921
-1.92971300929
-0.308690617681
0.302342703843
1.93606092321
-1.9866667805
-0.345190683991
0.337037385159
1.99482007939
-2.05843136785
-0.374374727167
0.364363861428
2.06844223368
-2.14428849638
-0.390448763813
0.37888026581
2.15585699439
-2.24026645555
-0.387133603383
0.374768400471
2.25263165848
-2.33892911112
-0.360137818552
0.34808049345
2.35098643624
-2.43113133644
-0.308497369512
0.297796050879
2.44183265509
-2.50160526695
-0.250165622212
0.247336075774
2.50443481338
-2.43494692735
-0.369820391029
0.38964634289
2.41512097549
-2.34006429253
-0.4540225443
0.449979775478
2.34410706136
-2.38437308579
-0.244144698784
0.243866075321
2.38465170926
-2.36022489631
-0.0820785544844
0.087987802346
2.35431564851
-2.29690269658
0.0480345155583
-0.0380011133218
2.28686929439
-2.20963756044
0.131891272721
-0.120328303708
2.19807459147
-2.11831074375
0.171198184821
-0.160325392998
2.10743795197
-2.03790459044
0.175872764458
-0.167044563739
2.02907638978
-1.97581374023
0.159025872443
-0.152646872384
1.96943474025
-1.93284409781
0.132246067659
-0.128096276753
1.928694307
-1.90600977411
0.103552134695
-0.10111664105
1.90357428055
-1.89090436769
0.0773549984177
-0.0760749823608
1.8896243517
-1.88336052344
0.0552284414872
-0.0546506172661
1.88278269928
-1.88032473844
0.0369590052369
-0.0367991469201
1.88016488017
-1.88010411257
0.0216962716404
-0.0218265704155
1.88023441138
-1.88202135935
0.00882789262024
-0.00920256771079
1.88239603448
-1.88577154511
-0.00176017640593
0.00117763131962
1.88635409025
-1.89100473765
-0.0101081507237
0.00937753080512
1.89173535764
-1.89709998415
-0.0160772462278
0.015292199765
1.89788503068
-1.90334964928
-0.0198871184549
0.0191204196099
1.90411634818
-1.90930910106
-0.0220200076589
0.0213071140062
1.91002199477
-1.91478337728
-0.0229517645833
0.0223049567974
1.9154301851
-1.9197252548
-0.0230522851474
0.0224712269344
1.92030631306
-1.92415745914
-0.022591945596
0.0220715002314
1.92467790453
-1.92812691539
-0.0217611146346
0.0212949344175
1.92859309563
-1.93168358101
-0.0206902190312
0.0202723542328
1.93210144583
-1.93487241525
-0.0194698686215
0.0190951118699
1.93524717204
-1.93773266773
-0.0181646471522
0.0178284701484
1.93806884475
-1.94029840454
-0.0168190523876
0.0165175281251
1.94059992884
-1.94259911614
-0.0154643216298
0.0151940531824
1.94286938462
-1.94466050555
-0.0141209772758
0.0138789667301
1.94490251612
-1.94650536307
-0.0128011091531
0.0125846996211
1.94672177262
-1.94815364854
-0.0115104394088
0.0113173395845
1.94834674837
-1.94962270392
-0.0102489917296
0.0100771803135
1.94979451533
0.0112878501106
-1.86223115288
1.86226642663
-0.0113231236603
-1.84492518018
-0.0495602839981
0.0493424643323
1.84514299994
-1.84735413771
-0.0850192247751
0.0845874453182
1.84778591725
-1.85187573491
-0.12306692382
0.12230149582
1.85264116298
-1.85963718963
-0.164250651155
0.162978568449
1.8609092724
-1.87219958688
-0.20862977283
0.206625638178
1.87420372163
-1.89159471034
-0.255946137736
0.252916024969
1.89462482322
-1.92044439972
-0.306353972409
0.301921150523
1.92487722168
-1.96218462313
-0.359662218923
0.35332624028
1.96852060185
-2.02105862471
-0.413336441677
0.404555276858
2.02983978962
-2.10100597501
-0.461374949707
0.449776875365
2.11260404943
-2.20339231036
-0.49435995812
0.48011344629
2.21763882221
-2.32393701817
-0.500609581374
0.484775186014
2.33977141351
-2.45131376437
-0.471639386913
0.455980023622
2.46697312766
-2.56943820334
-0.405161682395
0.391883522533
2.58271636316
-2.66654907857
-0.312124654502
0.301953803895
2.67671992914
-2.70657658459
-0.269623041785
0.275174041464
2.70102558491
-2.60964843936
-0.408037471952
0.419723133202
2.59796277812
-2.58243133738
-0.251146742129
0.250611853786
2.58296622572
-2.53722148895
-0.00905646984095
0.0211089028437
2.52516905599
-2.42125913977
0.158590470606
-0.141338929506
2.40400759871
-2.27593049738
0.253511869282
-0.235045847335
2.25746447547
-2.13521596196
0.279918516389
-0.263993067132
2.11929051275
-2.02221047815
0.259157610808
-0.247484985386
2.01053785277
-1.9440502013
0.215149328932
-0.207719519498
1.93662039192
-1.89707728991
0.165592551627
-0.161528900723
1.89301363908
-1.87322424358
0.120667358686
-0.118876071617
1.87143295659
-1.86392731258
0.0845563880694
-0.0840405481221
1.86341147272
-1.86211553322
0.0572705148848
-0.0573167714716
1.86216178988
-1.86334207806
0.0364203245942
-0.0366799466896
1.86360170022
-1.86596104166
0.0193394448125
-0.0197641267988
1.8663857237
-1.87004815513
0.00469412568644
-0.00531791785454
1.87067194734
-1.87593438013
-0.00776573818886
0.0068713020512
1.87682881631
-1.88388955031
-0.0174496292023
0.0163647608556
1.88497441871
-1.89265009331
-0.0236228386315
0.0225449036408
1.89372802834
-1.90093496496
-0.0269348275887
0.0259619898319
1.90190780277
-1.90828556317
-0.0283387659726
0.0274889896872
1.90913533951
-1.91467747437
-0.0285332986489
0.0277968150149
1.91541395804
-1.92021893168
-0.0279689653328
0.0273294498623
1.92085844718
-1.92504159284
-0.0269319769228
0.0263735883131
1.92559998148
-1.92926275593
-0.025604134958
0.0251138598318
1.92975303107
-1.93297643091
-0.0241028277092
0.0236704409691
1.93340881767
-1.93625646927
-0.0225066452387
0.0221240726584
1.93663904188
-1.93916152378
-0.0208707401456
0.0205315074344
1.93950075652
-1.94173932239
-0.019232629614
0.0189313462909
1.94204060575
-1.94402992344
-0.0176178045159
0.0173499316159
1.94429779636
-1.94606712483
-0.0160422853703
0.0158039667012
1.94630544352
-1.94787985409
-0.014514527088
0.0143024370366
1.94809194415
-1.9494930321
-0.0130369099832
0.0128481885273
1.94968175357
-1.95092827726
-0.0116069769534
0.0114391088622
1.95109614535
0.0114057801523
-1.90731138025
1.90730030345
-0.0113947031524
-1.89099066957
-0.0504974771933
0.0504681985815
1.89101994831
-1.89142950381
-0.0870681617194
0.0869658502806
1.89153181542
-1.89279020514
-0.127139702252
0.126856847412
1.89307306012
-1.89613768361
-0.171717111265
0.171086962014
1.89676783299
-1.90302021809
-0.221344220329
0.220135028891
1.90422940968
-1.9156336658
-0.276485456539
0.27435797405
1.91776114848
-1.93721220231
-0.338306506914
0.33475790506
1.94076080429
-1.97261924092
-0.408169714695
0.402440119277
1.97834883643
-2.02894089604
-0.484789477386
0.475842520315
2.03788785321
-2.11488145185
-0.561568066337
0.548323600945
2.12812591731
-2.23739779802
-0.624076092908
0.606126073647
2.25534781725
-2.3966241744
-0.651966816549
0.629934169323
2.41865682163
-2.56876562061
-0.622532322376
0.600386749238
2.59091119365
-2.72284677748
-0.525831708245
0.509396097076
2.73928238868
-2.84169770459
-0.408080485513
0.394719294296
2.85505889587
-2.92842017898
-0.282324199748
0.276604450174
2.9341399285
-2.93067334912
-0.322020083467
0.32913371147
2.92355972108
-2.87296105246
-0.224594191394
0.2316634802
2.86589176364
-2.77787494616
0.123336692091
-0.102908932529
2.75744718664
-2.57740869675
0.346250228685
-0.31702678744
2.54818525555