/*--------------------------------*- C++ -*----------------------------------*\
| =========                 |                                                 |
| \\      /  F ield         | OpenFOAM: The Open Source CFD Toolbox           |
|  \\    /   O peration     | Version:  2506                                  |
|   \\  /    A nd           | Website:  www.openfoam.com                      |
|    \\/     M anipulation  |                                                 |
\*---------------------------------------------------------------------------*/
FoamFile
{
    version     2.0;
    format      ascii;
    arch        "LSB;label=32;scalar=64";
    class       volScalarField;
    location    "2";
    object      epsilon;
}
// * * * * * * * * * * * * * * * * * * * * * * * * * * * * * * * * * * * * * //

dimensions      [0 2 -3 0 0 0 0];

internalField   nonuniform List<scalar> 
104960
(
2.24877684078
0.167103179162
0.130878414473
0.166260850408
0.0886706177085
0.0515029418611
0.0396196681222
0.0358764226841
0.0383356797763
0.0476213139148
0.0518752984488
0.0464149871788
0.0406151491021
0.0347197106032
0.0265007104031
0.0175729595418
0.0105588547283
0.00661316622191
0.00485723883613
0.00420284330236
0.00407123660168
0.00424978335704
0.00459954196589
0.00524128271275
0.00620486492441
0.0071324075344
0.00799085738195
0.00909262574427
0.0110882838342
0.0141155153332
0.0186141157918
0.0250839878569
0.0341393674381
0.0458723151906
0.0597793669263
0.0747618822231
0.0894019639504
0.102356807048
0.112710273621
0.120113491873
0.124626223317
0.126508892981
0.126191252278
0.124256427219
0.121293578986
0.117824212702
0.114312683896
0.111091928477
0.108318993921
0.106046125699
3.2753597002
0.277136487321
0.0948812346127
0.0470286973086
0.0283573743317
0.0192841780595
0.0142148149564
0.0111026070891
0.00905234884001
0.00761768504047
0.00656600080887
0.00577996770523
0.00517234111442
0.00467938973782
0.00427314434515
0.00393922493012
0.00366477673641
0.00344929737715
0.00334508821794
0.00368412114466
0.00673207983311
0.0174023381548
0.0175523060829
0.00573676819926
0.00331711236112
0.00274866489196
0.00251822372923
0.00240534148746
0.00232125573136
0.00224906447791
0.00218632825261
0.00213269062049
0.00208872444799
0.00205324171562
0.00202576459297
0.00200509187725
0.00198990935175
0.00197894089441
0.00197106037704
0.00196534229132
0.00196107656703
0.00195777150239
0.00195511091271
0.00195289691512
0.00195100114809
0.00194933981035
0.00194786102645
0.00194654491398
0.00194539799462
0.00194442273086
3.74997065763
0.395046847169
0.139576578499
0.0690128172769
0.0409316578276
0.0272162371813
0.0195769925139
0.014913169164
0.011865194004
0.00976399592564
0.00825124690066
0.00712244025811
0.00625221894037
0.00555985687365
0.00499399065753
0.0045214155611
0.00411904913356
0.00377107349483
0.00346672425084
0.00319887625227
0.00296505582811
0.00277830714414
0.00276566467968
0.00370809400692
0.0082311828015
0.0129445841988
0.00529426189193
0.0030387608043
0.00250231749466
0.00232680035488
0.00223716208388
0.00217053962489
0.00211823562569
0.00207618403341
0.00204344134718
0.00201866223999
0.00200035129454
0.00198701628436
0.00197733019817
0.00197021209308
0.00196484241075
0.00196065033695
0.0019572714395
0.00195448405525
0.00195214487204
0.00195015404118
0.00194844224637
0.00194696967691
0.00194572024677
0.00194467499645
4.0515342287
0.476238316045
0.172198757107
0.0857729002948
0.0508836470524
0.0337082455014
0.0241024952984
0.018229531988
0.0143939184782
0.0117574759336
0.0098688160202
0.00846778254843
0.00739552861216
0.0065501724552
0.00586451819123
0.00529398581574
0.00480888797016
0.00438906850292
0.00402006251481
0.00369120032089
0.00339472453819
0.00312483227419
0.00287812028214
0.00266263227092
0.00255092332272
0.00294050840684
0.00529463776469
0.00932278413474
0.00479213627255
0.00288992174053
0.00239869549185
0.00225372796042
0.00217525916606
0.00211887082883
0.00207587081582
0.00204342746838
0.00201939434686
0.00200178229551
0.001988842629
0.00197918909199
0.0019717990349
0.00196596593974
0.00196124687512
0.00195738138186
0.00195420793141
0.00195160637246
0.00194947497727
0.00194772844114
0.00194630368815
0.0019451416734
4.2694070237
0.538234003389
0.197893905841
0.0992325453255
0.0589949319181
0.039065768101
0.0278785788453
0.0210255641532
0.016548414635
0.0134750182773
0.0112801046596
0.00965976086759
0.00842772277316
0.00746413890065
0.00668892179053
0.00604749929072
0.00550287305784
0.00503073827925
0.00461443961805
0.00424164377508
0.0039030933211
0.00359084314028
0.00329855916654
0.0030227733085
0.00276540088719
0.0025498762989
0.00249801955701
0.00313518500677
0.0058238324956
0.00640255286078
0.00333451647285
0.00253031268819
0.00229151984208
0.00219515583103
0.00213166470792
0.00208552152965
0.00205174102197
0.00202698357645
0.00200862701844
0.00199470974921
0.00198386659413
0.00197518589803
0.00196810752898
0.00196232353485
0.00195766032531
0.00195398019873
0.0019511281092
0.00194893040656
0.00194722761989
0.00194588097684
4.43831972474
0.588359920801
0.219090583695
0.110457274884
0.0658077943992
0.0435897468595
0.0310814524723
0.0234073564589
0.0183927858715
0.014955046592
0.0125076688676
0.0107103548619
0.00935359214399
0.00830161843721
0.00746284956996
0.00677403022891
0.0061913980045
0.00568561650603
0.00523765349258
0.00483427095173
0.00446514745988
0.00412099005685
0.0037930108428
0.00347564600983
0.00316823175355
0.00287550006116
0.00261691675213
0.00246807998639
0.00273591506186
0.00434851122752
0.00605108873009
0.0035313681263
0.00263697764615
0.00234315614569
0.00222867014871
0.00215665809584
0.00210603137562
0.00206943826294
0.00204223652659
0.00202129995927
0.00200464544844
0.00199107236026
0.00197987050851
0.00197068308687
0.00196335926715
0.0019577742373
0.00195369687311
0.00195077788969
0.00194865336799
0.00194702102282
4.57526109996
0.63037797644
0.237107315096
0.120056009018
0.0716481822903
0.0474698232063
0.0338266835766
0.0254468059476
0.0199717196359
0.0162249453202
0.013568323287
0.0116307368034
0.010182344669
0.00907233580237
0.00819724847626
0.00748484310828
0.00688525631456
0.0063650995094
0.00590327558671
0.00548593055949
0.00510184827897
0.00473933557763
0.00438545035161
0.00403058336806
0.00367306228647
0.00331993613245
0.00298396845788
0.00269079786449
0.0025133038293
0.00271824571031
0.00404947095994
0.00536834286422
0.00346240499342
0.00269474512857
0.00240801645542
0.0022797921937
0.00219865000441
0.00214197955441
0.00210020016315
0.00206763246146
0.00204110358949
0.00201898161196
0.00200042274087
0.0019850559437
0.00197285979193
0.00196383741213
0.00195766176511
0.00195362135346
0.00195089634278
0.00194882558918
4.68977433104
0.666482947928
0.2527386409
0.128403357423
0.0767188025848
0.0508234948174
0.0361837386785
0.0271838248226
0.0213059490631
0.0172930704149
0.0144635777798
0.0124209915918
0.0109178550584
0.00978775410293
0.0089121355869
0.00820641187092
0.00761351430684
0.00709778888253
0.00664007775045
0.00622953476709
0.00585479706675
0.00549921202955
0.00513875672847
0.00475411084932
0.00433981280889
0.00390901861418
0.00348572713541
0.00309579796546
0.00277573703861
0.00261577980531
0.00292651237981
0.00435581375362
0.00475546659688
0.00337522399204
0.0027538922531
0.00250092035056
0.00236200049554
0.00227040228438
0.00220408889335
0.00215175916145
0.00210785391457
0.00207017458087
0.00203789071072
0.00201074748824
0.00198916745696
0.00197366946655
0.00196381118705
0.00195810569538
0.0019546481574
0.00195187014168
4.78775869493
0.698076737147
0.266503625268
0.135746840789
0.0811535284028
0.0537267297647
0.0381946942941
0.0286384974647
0.022400430584
0.0181545037161
0.0151846767473
0.0130772710559
0.0115728349661
0.0104877937479
0.00967842502281
0.00903666634722
0.00849288019359
0.00800791093269
0.00756845918206
0.00717924563279
0.00684193210893
0.00653422150741
0.00620195345686
0.00579802892342
0.00530812345972
0.00475673047433
0.00419566369199
0.00367343059236
0.00322826199629
0.00290936051863
0.00285956887666
0.00353689998025
0.00508112552809
0.00423383435132
0.00332279196475
0.00288340058822
0.002657328197
0.00251061081419
0.00240420619587
0.00231726336164
0.00224050378016
0.00217216287515
0.00211232500924
0.00206075794233
0.00201924207203
0.00199054567258
0.00197396498677
0.00196601313731
0.00196205005806
0.00195773966019
4.87313074105
0.726121287886
0.27876799072
0.142264612766
0.0850503831127
0.0562356827744
0.0398901730198
0.0298238380956
0.023255212607
0.0188010280881
0.0157242702387
0.0136136011935
0.0122202773001
0.011362010903
0.010909864027
0.0112771664483
0.013174025809
0.0155436533869
0.0164758949914
0.0150435995501
0.0119599627724
0.00965587080301
0.00841589087791
0.00766894422212
0.00694476676126
0.00612973326742
0.00529620839927
0.00453814251289
0.00390781010618
0.00344223168187
0.00322499248025
0.00358314456101
0.00507757901091
0.00533185859613
0.00431524471184
0.00366628502023
0.00328218369968
0.00304472261094
0.00287125903041
0.00271382717781
0.00256357427733
0.00242439737782
0.00229797873787
0.00218200404633
0.00208599824151
0.00202510558975
0.00199749377152
0.00198926273779
0.00198615098733
0.00197356850844
4.94864397144
0.751320655247
0.289811196179
0.148099883091
0.0884936836943
0.0584034432009
0.0413037603881
0.0307593919695
0.0238790574223
0.0192358884533
0.0160980963751
0.0141162449524
0.0134641156458
0.0175165883595
0.121461896639
0.530930986553
1.13724022193
1.6129027888
1.05078789735
1.07126611053
0.794302100072
0.357265902963
0.116891160116
0.0319941424124
0.0128266139392
0.00891433663843
0.00720804180423
0.00593670610946
0.00497296414043
0.00430538898359
0.00398408797974
0.00431609174248
0.0062047152131
0.00894564365651
0.00932226757886
0.00921606600368
0.00926751605985
0.00887671143489
0.00820345529344
0.00829005962746
0.0098140385971
0.0117830426393
0.0108635477561
0.00539216683695
0.00261756732107
0.00215646980027
0.00211995102088
0.00220804933902
0.00230070524924
0.00212126248105
5.01633208522
0.774222405698
0.299865022651
0.153382255242
0.0915692086372
0.0602928837851
0.0424843831325
0.031484362038
0.0243041472071
0.0194915650882
0.0163750590089
0.0151339875288
0.0274369752215
0.212081088067
3.65272907316
12.4562944377
22.5145803993
39.1773752547
405.985572434
308.366341024
241.718447905
167.102168308
79.4637364118
16.3909557086
1.09015911159
0.0491925069897
0.0121859286951
0.00837491183866
0.00672139387118
0.00576055502483
0.00542894011241
0.00651728363221
0.0167710775802
0.04888252093
0.0865171260407
0.098948185874
0.0855987917135
0.0692785119314
0.0629987885355
0.0728797490457
0.106370331532
0.147383564739
0.158482712852
0.112245931292
0.0253837539149
0.00528972379566
0.00456372472649
0.00778270024134
0.00639248309185
0.00376585296581
5.07774900802
0.795272048116
0.309134307018
0.158239083327
0.0943718661324
0.0619834563647
0.0435036181821
0.0320660239803
0.024595694162
0.0196395069369
0.0169974395464
0.0202443239219
0.291943491872
6.44795706575
32.0746733145
108.344281854
329.150765787
452.258814222
236.055632358
151.532739727
125.964684657
84.3788351297
28.115647519
3.19397146566
0.118210007543
0.0150144972262
0.00965839919476
0.00830486024745
0.00974713071949
0.0411872497181
0.295140672616
0.716202643791
0.721982336394
0.488002760609
0.272836253408
0.146564476556
0.0835654568961
0.0536754718583
0.0486606511605
0.0726035586013
0.0933883558853
0.127809646418
0.069839706617
0.0278738805971
0.0217033083594
0.015290579506
0.00939109839763
0.00610413040345
5.13409451646
0.814839661284
0.317803486306
0.162795900916
0.0970042868508
0.0635688781385
0.0444531096544
0.0325973971698
0.0248479367648
0.0197708670242
0.0174311105858
0.0859582784738
2.05405752633
521.060845868
650.708272194
44.7014976686
27.7507009817
44.9234915001
69.1815823835
47.7406300594
14.8206103622
1.00312313757
0.0473727629928
0.0157262789555
0.0218740723806
0.196495151113
1.36410152058
2.05387437829
1.26363771289
0.652417754472
0.401156214662
0.265597455269
0.152138351485
0.0724442630993
0.03280974636
0.0362221696787
0.0877561454639
0.0955684159005
0.105688204534
0.0630067274743
0.0379920278377
0.0471212728721
0.0484670560103
0.0270370709152
0.0075024398883
5.18631120758
0.833230898434
0.326033806852
0.167169040783
0.0995667759928
0.0651450454977
0.0454304813631
0.0331811110042
0.025165858617
0.0199621933093
0.0178731639189
0.0384466986667
761.302949332
583.409044314
22.724045338
21.3637890953
27.2586992846
44.62114101
42.8509233377
19.5952383071
2.0639695178
0.0977484728416
0.0606298946587
1.34555629187
6.43442906225
5.1475375195
2.0844485261
0.795395126961
0.285492365071
0.104637123693
0.0596967534984
0.0411052687553
0.0247839260374
0.0133149120698
0.0196117919875
0.0911542915663
0.11210353806
0.0902495547153
0.0789779305966
0.0433206868094
0.0281293921386
0.0206520749946
0.0184172581826
0.00925447942125
5.23511785055
0.850687199701
0.333953799718
0.171452580033
0.102141596499
0.0667916147911
0.0465176940533
0.0339039170143
0.0256369904369
0.0202577657989
0.018066426443
0.0357304140166
543.864750029
392.30978429
41.1181093004
21.6923549185
29.0879541369
35.6209601592
31.0684211715
16.9438500534
1.54443950365
0.167704682838
3.35004915276
12.9837198857
10.9108775187
5.87941198117
2.2239767228
0.708739225358
0.218778216605
0.0612248439802
0.0153947211621
0.00683190936308
0.00519188482951
0.0043468231496
0.00451922418195
0.0202900167985
0.116060805194
0.177112822762
0.0951594125166
0.0344072436976
0.0115287984923
0.00797716225561
0.00840128943772
0.00642538199991
5.28104026536
0.867381205081
0.341649319464
0.175705352985
0.104777682538
0.0685541216289
0.047759919113
0.0348120167012
0.0263074414941
0.0206935069616
0.0180150672557
0.0310327674255
0.393091858838
187.153121554
240.40057147
119.342136816
24.7972437653
22.7640838067
24.6853097031
19.4849345436
9.48933456928
0.673355984684
3.16654706758
14.837854064
19.386897188
15.2637725951
7.70305001732
2.58519355227
0.60179481751
0.132993669176
0.0305791038326
0.00842747951716
0.00391066851278
0.00324849276109
0.00308146043004
0.00303759622564
0.00309978428286
0.00326930608687
0.00332715495286
0.00301886576503
0.00261064819737
0.00240596602177
0.00231095580189
0.00227158140701
0.0022346832731
5.3244392182
0.883422394203
0.349164071824
0.179947867048
0.107485177879
0.0704373377193
0.0491587422614
0.0359060899778
0.0271863031596
0.021332397812
0.0177966923163
0.0190707667236
0.161211206507
38.6741424561
80.4249687296
102.787497978
238.114701869
139.627886532
20.6991827586
17.1833623058
13.1856839803
2.66953528196
2.91992611704
15.2346022789
30.2067180569
33.3833989385
21.4560730424
8.71292150483
2.20223683854
0.349911916271
0.0548752034745
0.0111543231635
0.00436419954242
0.00309097359917
0.00288774834912
0.00280401172745
0.00273894644428
0.00268268421302
0.00259637817087
0.00245960797079
0.00230655493225
0.00219219082495
0.00212875412106
0.00208897995291
0.00206901710455
0.00204284024334
5.36556676315
0.89885601952
0.35649324313
0.184162173686
0.110239503621
0.0724092856759
0.0506726657668
0.0371329309555
0.0282104233692
0.022143149527
0.0180949146586
0.0159932184237
0.0234322260109
0.217942282112
27.96506847
144.944628854
202.70352675
331.622929316
155.636237762
10.3260872173
137.435678909
272.89490964
129.320539169
22.2925882521
8.26340242041
7.58832450554
21.685416238
44.4365182017
55.8546827718
47.2374351938
23.4852362453
7.24229874367
1.08313141415
0.106387290699
0.0134415897342
0.00444585655978
0.00314503012015
0.00275024388795
0.00264084429381
0.00262350256524
0.0025528873454
0.00248129968436
0.00239741584901
0.00230049206255
0.00220731879154
0.00213577436613
0.00208815668114
0.0020552258727
0.00202997578205
0.00200670675784
5.40459056588
0.91370230643
0.363616005537
0.188306725028
0.11298753927
0.0744096279433
0.0522351064998
0.0384202481392
0.0293059009345
0.0230610192175
0.0187228278656
0.0158067060919
0.0141635974659
0.0192633292855
0.350556378796
1.27069331684
1.80604591351
1.3064010844
0.191830586153
0.186623404973
0.40804145754
116.811722802
218.85827003
151.882710927
87.2596446269
72.3542007053
80.1731450054
86.1370390494
76.105733834
46.3389034
15.6960649809
2.77097100298
0.187398768788
0.0135162806124
0.0043249885649
0.00324322807695
0.00280149579073
0.00255762802732
0.00246147472657
0.00247482897804
0.00242660234596
0.00236214942276
0.00229339094731
0.00222325313294
0.00215886835642
0.00210690442223
0.00206824703477
0.00203921183572
0.00201595800322
0.00199641861924
5.44162281792
0.9279568553
0.370500399735
0.192339799213
0.115680658101
0.0763830845641
0.0537846040349
0.0397007382976
0.0303990157605
0.0239967395696
0.0194723387028
0.0162401648686
0.0139402490728
0.0123040300817
0.0110937780569
0.010179195514
0.00944220573967
0.0088708698108
0.00870890703993
0.00973686905248
0.0163531684049
0.582487222227
61.492923411
144.802444717
153.570515277
137.373267059
118.813283995
94.3730188808
57.6384401363
20.1816657517
3.15139362793
0.144291872007
0.00818117433456
0.00414776644612
0.00339170061222
0.00290560354766
0.00258663896655
0.00240441375761
0.00232640479404
0.00234663374644
0.00233417417206
0.00228431278207
0.0022294961566
0.00217563378476
0.00212686503361
0.00208610118449
0.00205373208672
0.00202813564469
0.00200740741486
0.00199047610202
5.4767579912
0.941611500242
0.377116588008
0.196223055767
0.118276084081
0.0782838825564
0.05527275625
0.0409236167614
0.0314358883596
0.0248850151971
0.0202162673237
0.0168117441748
0.0142830384266
0.0123641240096
0.0108611454111
0.00963550242007
0.00859958448473
0.00771068046611
0.00695792930684
0.00636144293737
0.00603537043766
0.00707991276538
0.169587252696
8.81508045956
37.7026290616
54.0391980325
47.1534290138
25.2158152006
5.61768917639
0.280729604915
0.0102263817015
0.00483910846731
0.00403118563233
0.00346581109469
0.00302081395151
0.00267298442
0.00242423453739
0.00227991850503
0.00222151333471
0.00224477250775
0.00226192568333
0.00222887308145
0.00218650748203
0.00214345969251
0.00210407260544
0.00207034493556
0.0020425595385
0.00201992394314
0.0020014187819
0.0019863768787
5.51007802651
0.954664104488
0.383445159181
0.199931072256
0.120745525754
0.0800823849716
0.0566697824368
0.042059888402
0.0323882887518
0.0256942398239
0.0208997774483
0.0173713784714
0.0147132648356
0.0126639506853
0.0110437716492
0.00972878731174
0.00863661146116
0.00771654714446
0.0069406107289
0.00629844047429
0.00579272576413
0.00543840763649
0.00530747225445
0.00755957210687
0.0440510773494
0.119600778899
0.0647500527428
0.0103039407194
0.0053548717606
0.0047264521284
0.00427002062735
0.00383631601545
0.00343694976121
0.00308089846892
0.00276898522671
0.00250525908042
0.00230362666793
0.00218263778002
0.00213948040928
0.00216790970885
0.00220333580924
0.00218702243228
0.00215574639582
0.0021206459873
0.00208743833327
0.00205840182237
0.00203395459299
0.00201367310338
0.00199694927561
0.00198333880901
5.5416699269
0.967122729259
0.389480129708
0.203452990271
0.12307644117
0.0817658769005
0.0579639099994
0.0430996990188
0.0332485994691
0.0264172580201
0.0215087172522
0.0178784881652
0.0151263090253
0.0129917144238
0.01129927647
0.00992914731685
0.0088000371177
0.00785811724221
0.00706895466125
0.00641177250356
0.00587438076832
0.00544902412303
0.0051286865621
0.00490269171187
0.00475081197728
0.00463675657416
0.00451466433808
0.00435423696436
0.00415036443585
0.00390792058591
0.00364129969923
0.00336655783931
0.00309567999333
0.00283799300605
0.00259910703249
0.00238675863035
0.00221617083846
0.00210940750913
0.00207543326967
0.00210956403682
0.00215568523478
0.00215465635024
0.00213301797393
0.0021041172495
0.00207524549433
0.00204943128934
0.00202737750726
0.00200888617315
0.0019935617212
0.00198106428477
5.57162793902
0.979006208335
0.39522751406
0.206790717613
0.125269324934
0.0833349199945
0.0591567833979
0.0440464349429
0.0340222535337
0.0270606111849
0.0220475284035
0.0183291461298
0.0155008469662
0.0133011586888
0.0115554060124
0.0101445230501
0.00898677151915
0.00802597944462
0.00722378753077
0.00655378917567
0.00599694478978
0.00553806249174
0.00516315607078
0.00485745590724
0.00460409918921
0.00438417125699
0.00417896069109
0.00397421110388
0.0037644509381
0.00354863934831
0.00332920688891
0.00310980259572
0.00289369973528
0.00268476739366
0.00248651028647
0.00230536927335
0.00215478533487
0.002056341489
0.00202622934243
0.00206441657721
0.00211784809744
0.00212982232001
0.00211625492834
0.00209219047978
0.00206639515634
0.0020427948292
0.00202244013636
0.00200528749609
0.00199103575076
0.00197937317639
5.6000529757
0.990342486644
0.400702007533
0.209954888436
0.127333368687
0.0847985364044
0.0602579951829
0.044910825943
0.0347210806339
0.0276365192354
0.0225273057489
0.0187307637584
0.0158376469388
0.0135843491989
0.011795352781
0.0103509582895
0.00916828371388
0.00818910203131
0.00737225769443
0.0066878508695
0.00611311787588
0.00562944707429
0.00522043195596
0.0048708334425
0.00456636133823
0.00429417940843
0.00404384946753
0.00380828445704
0.00358416853827
0.0033696450626
0.00316368151638
0.00296541548494
0.0027740563764
0.0025899939629
0.002414495074
0.00225209825969
0.00211396958467
0.00201986209227
0.00198975555053
0.00202950146557
0.00208914486053
0.00211153475702
0.0021043613944
0.00208385948995
0.00206015200057
0.00203802379162
0.00201883625809
0.00200263573227
0.00198915350672
0.00197808955989
5.62704654093
1.00116608406
0.405924237102
0.212961465494
0.129282644519
0.0861700393903
0.0612808091829
0.0457063091931
0.035358622509
0.0281582362222
0.0229601703739
0.0190931513848
0.0161430605584
0.0138435389077
0.0120174291087
0.0105437489886
0.00933821638093
0.00834082220303
0.00750835583015
0.00680866700226
0.00621687555135
0.00571273081124
0.00527902417801
0.00490088383407
0.00456573267953
0.00426360927366
0.00398743042183
0.00373285512206
0.00349753748279
0.00327953542141
0.00307670137531
0.00288651552841
0.00270644401499
0.00253504507557
0.00237208427511
0.00222055138856
0.00208962651203
0.00199706673488
0.00196451677894
0.0020035443001
0.00206914389706
0.00209940135325
0.00209677713736
0.00207852438732
0.00205602471589
0.00203475870822
0.00201629899488
0.00200072778288
0.0019877778704
0.00197714294797
5.65270863775
1.01151593411
0.410919386603
0.215830080086
0.131133948065
0.0874646385323
0.0622394770614
0.0464465195928
0.0359479360747
0.0286379964524
0.0233571192642
0.0194255568011
0.0164241471739
0.0140834529259
0.0122242933505
0.0107241330865
0.00949725889532
0.00848215681006
0.00763409601916
0.00691944809294
0.00631209585627
0.00579098335425
0.00533868700809
0.00494079703855
0.00458579894323
0.00426513198761
0.00397310985089
0.00370640115026
0.00346296691176
0.00324084599955
0.00303749030884
0.00284974078192
0.00267431919315
0.00250887724231
0.0023522821318
0.00220639833067
0.00207883750676
0.00198571937136
0.00194950636019
0.00198667154109
0.00205820864638
0.00209360561907
0.00209318760151
0.0020757271046
0.00205362242954
0.00203272547847
0.00201465803873
0.00199946961305
0.00198686161074
0.00197650679642
5.67713734836
1.02144485875
0.415723460573
0.218587125922
0.132907989888
0.0886997444092
0.06314935187
0.0471453060671
0.0365016262575
0.029087203161
0.0237282097578
0.0197365161947
0.0166878347656
0.0143094753993
0.0124200605574
0.010895418181
0.00964847398507
0.00861646063124
0.00775351201819
0.0070250010356
0.00640404735558
0.00586914559895
0.00540278967663
0.0049908921255
0.00462254810984
0.00428979856118
0.00398747697003
0.00371253326474
0.00346295943071
0.00323680353279
0.00303137261466
0.00284322790649
0.00266876610549
0.00250524915583
0.00235108232111
0.00220735057548
0.00208043423444
0.00198539547665
0.00194671859667
0.00198743883669
0.00206882051364
0.00210150735925
0.00209639041795
0.00207635803346
0.00205321616162
0.00203200026474
0.00201391721777
0.00199883115269
0.00198635334355
0.00197611549653
4.40923483391
1.18704191308
0.46225469998
0.237545441422
0.142446661953
0.0941929051821
0.0666224484006
0.0494959694038
0.0381768277429
0.0303300135301
0.0246802755837
0.0204851393464
0.017289394399
0.0148018461976
0.0128295299015
0.0112407082587
0.00994316400187
0.00887048365304
0.00797417584039
0.00721770631024
0.00657284099548
0.00601714605872
0.00553246349277
0.0051042794002
0.00472158268032
0.00437635329299
0.00406489122815
0.00380577866533
0.00369460147375
0.00395395078157
0.00493882123441
0.00712683237641
0.0110826494426
0.0172702799622
0.0258747106794
0.0367888126883
0.0496697187766
0.0633922249525
0.0732655641152
0.0697239011822
0.0562362660873
0.0377469087329
0.0235474197571
0.0150830714247
0.0100518267198
0.00700750456736
0.00514056875022
0.00398517804818
0.00326389701509
0.00280655141454
1.31890050617
3.55767269283
8.61265030681
0.162418968885
0.663314410961
0.722158031432
3.6547773119
10.06019108
49.7644405811
24.2166936012
6.84253860004
6.75215029067
20.6096068084
56.3790728094
20.6111803113
196.377344584
257.928327331
18.3467526929
17.1414585194
63.3363992904
48.3318909402
45.1320384182
231.514727345
382.353508944
22.8170686105
30.9215946315
31.7691787411
181.730724464
1.14258121142
1.44573228401
6.95391093949
0.208301265542
0.955356223967
0.445811293063
17.1736542927
23.6500837607
14.3793094878
176.727956762
58.2809077846
39.6884053664
59.0177690143
153.078945605
113.8702515
289.789812132
63.7327911179
174.152576973
154.276951276
200.769761249
0.204741386102
0.0498976359247
0.707077907105
0.0664172470199
0.20757773567
0.0375198148938
0.276051431551
1.32359392325
1.24218647195
1.62028394961
508.913865769
596.458077601
640.789150538
697.870994079
677.112614274
691.475738214
693.998406703
658.571241925
609.700412028
635.795607231
725.924175292
0.164287918019
0.043096648437
0.438546405024
0.0386981109612
0.20627080725
0.0382715824411
0.197042310573
681.451587202
874.939711647
585.213253461
752.587006404
732.759313199
862.322086494
563.873104151
0.107906062281
0.0385848639974
0.282541545962
0.0361942314498
0.12060677253
0.0350272758212
0.126261347189
421.983013014
373.111364798
358.862600415
580.5014415
546.207057342
474.639826386
300.491162529
0.106859461358
0.022460249329
0.213371745584
0.0326566913127
0.0896903390269
0.0850179471325
0.139861369818
0.407960179258
0.590451120904
0.688194929617
267.603014862
89.2824225757
423.511789594
88.6979472691
188.698713969
91.5722782117
154.123840974
468.765554002
271.74484544
125.821126954
92.2802368088
1.25998383398
0.0296227293808
0.772204557122
0.399485405479
1.82490633078
0.303270874534
0.599820336469
3.87123253912
13.3087294159
2.59054139486
19.9065036638
25.7709147645
16.5822502789
87.1284926874
198.142524323
23.5694170399
61.9925918602
42.09377176
31.8181094155
62.5684402894
12.0138496892
200.094495713
5.33844527527
0.0265337915655
1.78124917676
1.05321611487
5.38054358209
0.300094653127
0.476582586304
96.9400483642
1.30847110415
2.60225776024
6.40356826858
27.05148406
4.24626561492
2.06363437646
352.485723806
5.17888473191
6.73661797514
15.7980327463
210.756257361
10.1410169178
5.86266246972
26.3426231049
10.4898571137
17.0153497966
23.2190753456
306.179936107
13.8475165293
8.16784092496
0.321960381712
0.0690262994164
0.0379750386861
0.0270468013898
0.0208806224187
0.0173971362807
0.0154146231577
0.0142392806374
0.0144023418189
0.0154617589439
0.0162337819507
0.0184883028999
0.0237954437984
0.0294422496932
0.0313246369539
0.0263639180477
0.0166152540429
0.00874776940747
0.00501439824733
0.00365688980766
0.00307942289403
0.0028296894284
0.00272345196707
0.0026600005444
0.00260146408492
0.00253347105377
0.00246660708738
0.00240667844396
0.00235962847837
0.00233336592919
0.00233863552022
0.00239411934874
0.00252517322183
0.00275528713129
0.00309656844172
0.00353119120325
0.00401285082805
0.00448258437409
0.00488666165668
0.00518704913627
0.00536396865437
0.00541696134364
0.005363959762
0.0052334577665
0.0050559682708
0.00485998436903
0.00466796253523
0.00449342957236
0.00434255055631
0.104691005789
0.995337398481
0.186917266818
0.0720628006285
0.0380772250233
0.0239640275546
0.0168072149062
0.0126823551003
0.0100966964668
0.00836124463954
0.0071221670016
0.00620431013528
0.00551732814017
0.00497965291764
0.00453742132034
0.00417625586447
0.00388623707279
0.00366044197707
0.00355332842856
0.00382906339969
0.00629771487236
0.0164288022914
0.0211048530699
0.00741019255336
0.0036368660917
0.00289372889548
0.0025970517055
0.00246324687505
0.00237402038646
0.00229666683387
0.00222844802012
0.00216871341269
0.00211807567429
0.00207697576405
0.00204408401006
0.00201881487522
0.0019999333686
0.00198614128022
0.00197620861202
0.00196907364704
0.00196387599797
0.00195996902041
0.00195691350894
0.00195443132156
0.00195234828189
0.00195055014424
0.00194896285765
0.00194754367035
0.00194628220003
0.00194518842841
0.00194425653624
1.3510129545
0.281249783089
0.110428865522
0.05766121368
0.0353752996463
0.0240799812627
0.0176256880289
0.0136100620503
0.0109463333776
0.00908687003429
0.00773396800354
0.00671522534695
0.00592267671018
0.00528661228324
0.00476329892812
0.00432398723982
0.00394828552318
0.00362260921903
0.00333799118064
0.00308912045574
0.00287964708713
0.00276332186804
0.00314688398326
0.0059117843584
0.0131533235735
0.00872428016201
0.00361358404056
0.00269595530032
0.00240192558589
0.00228776481372
0.00221033889772
0.00215031881164
0.00210220448468
0.00206365567169
0.00203386386053
0.00201148174848
0.00199503164184
0.00198308774307
0.00197441217087
0.0019680145174
0.00196315662792
0.00195933617526
0.00195623713079
0.00195366552634
0.00195149290838
0.00194963035615
0.00194801884439
0.00194662974155
0.00194545299581
0.00194446410637
1.57094651837
0.346288872135
0.138480953116
0.0726575250752
0.0444999788318
0.0301298302012
0.0218922999895
0.0167640208211
0.0133676198491
0.0110063726454
0.00929832509813
0.00802015121224
0.00703365234423
0.00624940731339
0.00560844712565
0.00507181377838
0.00461332342772
0.0042149682446
0.00386372358359
0.00354990118753
0.00326676201389
0.00300926401572
0.00277705291469
0.00259637912431
0.00264541121864
0.00375971007
0.00791173345219
0.00788577396312
0.00354269276327
0.00259688569095
0.00231975906013
0.00221819085815
0.00215110049069
0.00210071053833
0.00206211109736