/*--------------------------------*- C++ -*----------------------------------*\
| =========                 |                                                 |
| \\      /  F ield         | OpenFOAM: The Open Source CFD Toolbox           |
|  \\    /   O peration     | Version:  2506                                  |
|   \\  /    A nd           | Website:  www.openfoam.com                      |
|    \\/     M anipulation  |                                                 |
\*---------------------------------------------------------------------------*/
FoamFile
{
    version     2.0;
    format      ascii;
    arch        "LSB;label=32;scalar=64";
    class       volScalarField;
    location    "2";
    object      k;
}
// * * * * * * * * * * * * * * * * * * * * * * * * * * * * * * * * * * * * * //

dimensions      [0 2 -2 0 0 0 0];

internalField   nonuniform List<scalar> 
104960
(
0.121215608276
0.0291380445307
0.0435685483824
0.0671553486314
0.0411812048017
0.0275388349566
0.0235400852542
0.0230377151418
0.0259705573717
0.0327503631607
0.03603994255
0.0336598014022
0.0311920111907
0.0281897226054
0.0230628845863
0.0168826230185
0.0115612683499
0.0083181134553
0.00676463402296
0.00609272298999
0.00584455931008
0.00585975950971
0.00600472511837
0.00629385933798
0.00673174394338
0.00717759689761
0.00764055235652
0.00827673896454
0.0093659391939
0.0110468510199
0.0136828235682
0.017590968034
0.0231041108044
0.0302594398309
0.0387365260104
0.0478737734891
0.056837910865
0.06484245022
0.071336145165
0.0760797102519
0.0790653814021
0.0804132802663
0.0803589832985
0.0792395334758
0.0774063741185
0.0751818951256
0.0728604714493
0.0706617662046
0.0687024280986
0.0670329462893
0.155215395228
0.0391087363371
0.0220626198678
0.0152759026428
0.0117720620672
0.00968081972479
0.00831018586531
0.00735564364742
0.00665971797218
0.00612853710422
0.00570860450382
0.00537788387429
0.00511198351841
0.00488658652118
0.0046945042033
0.00453550926321
0.00440855852346
0.00432420408747
0.00435408389681
0.00486310829649
0.00781736526997
0.0163509118874
0.0166680948795
0.00748076283977
0.00527802256591
0.00468516829205
0.00441789004871
0.00427728675036
0.00416621752834
0.00406697794569
0.00397850281699
0.00390161150309
0.0038375596627
0.00378558961507
0.00374499214452
0.0037142030138
0.00369143072079
0.00367489197244
0.0036629848962
0.0036543733206
0.00364801675027
0.00364317968471
0.00363937711964
0.00363629575642
0.00363372141021
0.00363150047529
0.00362952825077
0.00362775921753
0.0036262013495
0.00362486643804
0.169245105813
0.0486140272165
0.0278287969631
0.01916675859
0.0145716537236
0.0117821711405
0.0099368281811
0.00864115277343
0.00769049893085
0.00696818338851
0.00640335925275
0.00595120649406
0.00558074719328
0.0052693600373
0.00500179685299
0.00476798476048
0.0045604424651
0.00437398738374
0.00420540793719
0.00405326405814
0.0039203004654
0.00382993225444
0.00394002855931
0.00503481334084
0.00926391784991
0.0133189599347
0.00705931514813
0.00493458525696
0.00436052552323
0.00415581365824
0.00404231513746
0.00395247887154
0.00387884069929
0.00381845659183
0.00377072577501
0.00373419617092
0.00370695376512
0.00368697319357
0.00367240253373
0.00366170427148
0.00365369222466
0.00364752305377
0.00364264355251
0.00363870417771
0.00363546638859
0.00363275116941
0.00363042688145
0.00362841824829
0.0036267006369
0.00362525546952
0.177713279594
0.0544668888722
0.0315623746174
0.0218066486433
0.0165627023327
0.0133492431708
0.0112085596625
0.00969786000853
0.00858581309262
0.00774026342842
0.0070802748611
0.00655337404868
0.0061236168801
0.00576509444827
0.00545888529514
0.00519153916227
0.00495374700657
0.00473898607962
0.00454231164756
0.00435982726188
0.00418854989057
0.00402627108063
0.0038729027653
0.00374352980421
0.00373493072613
0.00428562895657
0.00674345079269
0.0105029766167
0.00660244567676
0.00475471453195
0.00422457912094
0.00405600509606
0.00395538763953
0.00387835030628
0.00381740684339
0.00377042569416
0.00373512582784
0.00370898962406
0.00368965743756
0.00367520250503
0.003664173449
0.00365554631836
0.00364866011108
0.00364310826402
0.00363862154319
0.00363498720905
0.00363202399068
0.00362959033018
0.0036275943916
0.0036259606642
0.183637708235
0.0586473334138
0.0342930856014
0.0237718201836
0.0180687283337
0.0145529403343
0.0122001290739
0.0105341782213
0.00930542358418
0.0083708899513
0.00764282749409
0.00706406130322
0.00659520667758
0.00620773214945
0.00588019252918
0.00559637409856
0.00534448506647
0.00511668460083
0.00490745451514
0.00471230764453
0.0045274253455
0.0043488043896
0.00417277143307
0.00399745670603
0.00382714539662
0.00369573067406
0.00375808887576
0.00457941563232
0.00737477611946
0.00809281943305
0.00520094452527
0.00436672279865
0.00409978518494
0.00398105533051
0.00389597931547
0.00383122504537
0.00378257202479
0.0037463334035
0.0037191794089
0.00369847425205
0.00368233120358
0.00366946367579
0.00365905903665
0.00365064601962
0.00364393309724
0.00363867498132
0.00363460927158
0.00363146735006
0.00362902114762
0.00362708275212
0.188126631049
0.0618739089449
0.0364311332059
0.0253242622371
0.0192668514651
0.0155166267571
0.0129988629849
0.0112121207351
0.00989292560426
0.00889028317702
0.0081115041924
0.00749608890292
0.00700207673703
0.00659864045461
0.00626212443089
0.00597408443959
0.00572044484761
0.00549130754933
0.00528031260831
0.00508288796117
0.00489481008427
0.00471122546294
0.00452634983351
0.00433573068281
0.00413838926704
0.00393919486312
0.00376398379573
0.0037135767241
0.00414230348986
0.00596127507447
0.00778254576377
0.00541035370698
0.0044928546766
0.0041678287526
0.00402807602008
0.00393205243707
0.00386125055163
0.00380870744473
0.00376901952915
0.00373817219862
0.003713516578
0.00369341931344
0.00367689676654
0.00366342812219
0.0036527527318
0.00364463174381
0.00363868548531
0.00363439559946
0.00363124836921
0.00362882750012
0.191702472541
0.0644853518964
0.0381778668889
0.0265981708862
0.0202522205474
0.0163100608945
0.0136568274022
0.0117708638016
0.0103778373694
0.0093207175696
0.00850337437195
0.00786311465589
0.00735605504588
0.00694907550966
0.00661578495884
0.00633505188301
0.00609067200752
0.00587112808821
0.00566925683307
0.00548055600572
0.0053007378093
0.00512362699652
0.00494043326403
0.00474283469007
0.00452728639303
0.00429734071995
0.00406389640885
0.00385857220505
0.00377941872098
0.00414099576563
0.00569436603103
0.00718131442128
0.00537239270383
0.00458167338807
0.00426150583667
0.00410229850052
0.00399337088322
0.00391410576054
0.00385428044858
0.00380694498334
0.00376801988233
0.0037354031553
0.0037080278241
0.00368542185606
0.0036675237061
0.00365425585586
0.00364508323843
0.00363897513585
0.00363478618482
0.00363160437199
0.194650774455
0.0666676617727
0.0396463941372
0.0276703545827
0.0210801836708
0.0169743088495
0.0142047749951
0.0122333125103
0.0107769428081
0.00967433209747
0.00882756775477
0.00817335343793
0.00766689311859
0.00727246706936
0.00695916986645
0.00670101090129
0.00647849656482
0.00627900849622
0.00609663416101
0.0059291403917
0.00577309325464
0.00562011822985
0.00545444540682
0.00526023352186
0.00502870071123
0.00476435924074
0.00448261056903
0.00420646706088
0.00398218780447
0.00393164078919
0.00441556239825
0.00607518911708
0.00665990909846
0.00533233169715
0.0046835255584
0.00439606673729
0.00422106071364
0.00409793265935
0.00400549705749
0.00393086765173
0.0038672513388
0.00381207869776
0.00376457421523
0.00372464057181
0.00369291806469
0.00367001719229
0.00365519134405
0.00364630756421
0.00364072246453
0.00363628732823
0.197144197444
0.0685340948202
0.040906651471
0.0285888185639
0.0217855555207
0.0175351714076
0.014661735141
0.0126130563682
0.0110993660022
0.00995692661991
0.00908859499511
0.00843385329398
0.00795010869626
0.00759909032529
0.00734065299963
0.00713753764121
0.00696231584315
0.0067987066245
0.00664450772228
0.00650828358476
0.00639416673014
0.00629084528912
0.00616599483417
0.00598628291558
0.00573415487324
0.00541595185203
0.00506116958433
0.00470511617522
0.00438758382865
0.00417901448603
0.00426677769518
0.0051535096401
0.00689457322617
0.00610696895325
0.00522372219472
0.00481819836923
0.00459495088642
0.00442637708897
0.00428977601814
0.00417094328868
0.00406229305081
0.00396344104626
0.00387584454562
0.0038002166161
0.00373942777079
0.00369712433743
0.00367206192895
0.00365925256704
0.00365225876211
0.00364521048784
0.199295221261
0.0701592035124
0.0420054704489
0.0293862006234
0.0223923372417
0.0180106318362
0.0150409944579
0.0129193926498
0.0113509803761
0.0101721640669
0.0092915985138
0.00866104099694
0.00825345951509
0.00803920668161
0.0079666114193
0.0080281199161
0.00826748269217
0.00856766314655
0.00865380905876
0.008302938055
0.00765901830061
0.00735149772834
0.00729346145996
0.00716847171085
0.00686351802373
0.0064229137745
0.00592160605665
0.00542895304597
0.00499467439231
0.00467682210238
0.00460343983602
0.00514619962481
0.00672837772532
0.00679231883021
0.00582222601856
0.00537779380595
0.00515895022297
0.00500331285808
0.00485186055139
0.00468277103186
0.00450045926846
0.00431717183911
0.00414196373505
0.00397743108366
0.0038400383619
0.00375175284182
0.00370994129807
0.00369536780765
0.00368815112484
0.00366874608294
0.201181576515
0.0715954097036
0.0429766985505
0.0300868705482
0.0229192232579
0.0184154779727
0.015354280924
0.0131613804658
0.0115385855452
0.0103264054828
0.0094507253807
0.00890649839377
0.00885460385076
0.00995496731123
0.0257563037922
0.0844472845952
0.177873170716
0.266782610429
0.207896074065
0.23153052777
0.19461546657
0.102677566715
0.0395214642627
0.0142014676814
0.00886305971102
0.00800380213131
0.00727958319942
0.00653408876306
0.00591051405385
0.00547497291657
0.00534274627789
0.00582266575664
0.00743869497451
0.00966850750581
0.0104584298188
0.0110494516341
0.0117037047347
0.0116039981942
0.0110334823431
0.0112754220867
0.013038064525
0.0150723246993
0.0137631921602
0.00761871882077
0.00449680148358
0.00394289868897
0.00389158203049
0.00400413033774
0.00411818595924
0.00387469742145
0.202859737991
0.0728818271579
0.0438466782513
0.0307109348395
0.0233829043317
0.0187643150894
0.0156147791379
0.013351122507
0.011673688948
0.0104336208445
0.00960034233077
0.00939660605955
0.0128337783302
0.0421823026432
0.38544382166
1.12817672215
1.91645723172
3.23587068039
47.8684377972
52.4888225426
50.9918861146
39.2794562197
20.5117259924
4.70220191366
0.334401049664
0.0206758468615
0.0093912471488
0.00812930772706
0.00727918422373
0.00672910568036
0.00662138108516
0.00748648238417
0.0157257400662
0.0476542707131
0.0912177926574
0.109801686732
0.0995583330193
0.0841130116056
0.0782636125008
0.0881094108022
0.118193631841
0.15301957536
0.162890952507
0.114754489677
0.0287022854049
0.00765785253017
0.00712469620428
0.0112225868606
0.00958144137127
0.006093569707
0.204372201795
0.0740489920502
0.0446371861841
0.0312763561191
0.0237997332986
0.0190730954815
0.0158387641167
0.013505624335
0.01177447039
0.0105166616673
0.00987711237325
0.0113525264436
0.0626797393144
0.669346867733
6.0905714269
23.9752913751
64.2848509117
91.1471204158
59.4675894494
44.1964756686
38.5532494442
26.4050365517
9.04240663892
1.02524460743
0.0447006245865
0.0107190917902
0.00901568275939
0.00839672549074
0.00935977935493
0.033811861439
0.258011176865
0.644949621633
0.672381554965
0.478217994495
0.28414562689
0.162293478075
0.0977727328543
0.0653394728364
0.0586457309718
0.0822198394121
0.105873910951
0.13555733217
0.0754558682718
0.0329426695606
0.0268810050668
0.0200873388253
0.0135292461437
0.0093985636823
0.205751363348
0.0751213254096
0.045366687974
0.0317995038871
0.0241858738075
0.0193589455741
0.0160451856755
0.0136461747723
0.0118640833386
0.0105984332979
0.0101255364628
0.03063635393
0.332913920083
82.8938374883
115.127898875
20.4873553552
15.5478800838
20.8830883379
26.0161206536
17.126611454
4.95218050665
0.349118160593
0.0223888985695
0.0115108674025
0.0163054446893
0.145701591982
1.07982621475
1.62314029955
1.09010024664
0.614805491258
0.397912842933
0.270833556699
0.159609864784
0.0785997456
0.0373223818338
0.0413377368101
0.0957934721442
0.111601317489
0.11602382661
0.0708076729147
0.046945812328
0.0518150770983
0.0521060585181
0.0296925287192
0.0103435243675
0.207022384309
0.0761183806385
0.0460505961509
0.0322947133858
0.0245561995875
0.019638382483
0.0162531155905
0.0137949097668
0.0119659696269
0.0106891520171
0.0103538146014
0.018055707874
73.9147377946
115.081426031
12.5864078717
12.7791712029
15.8140497657
20.2022678127
17.0916963287
6.96730108851
0.730217384277
0.0430772158791
0.0364703440601
0.871133311213
3.73345239611
3.07781059536
1.44499927205
0.623058306044
0.24380903877
0.0974570376605
0.0602015728003
0.0435921627881
0.0273934621238
0.0156337556921
0.0225500849217
0.0943884035349
0.122444915066
0.101630885198
0.0891101170134
0.0542591974426
0.0361245477976
0.0267710707239
0.0234589204033
0.0130347738616
0.208204326392
0.0770553112133
0.0467008707362
0.0327731847047
0.0249224373601
0.0199245685026
0.0164779158723
0.0139697654791
0.0120984041214
0.0107868325204
0.0104221452542
0.0172544363692
64.2942651099
96.330929199
18.3064905729
11.9368160634
15.4909119104
16.9605760468
13.3620848449
6.05819632412
0.57870156348
0.0847861855988
1.88993789883
6.51230807166
5.90351118839
3.45907867696
1.42518230428
0.497618846849
0.166181124388
0.050357258867
0.0146278996735
0.00810006975527
0.00692376452966
0.00622234879097
0.00657659877994
0.0229593665622
0.115371979485
0.175363917282
0.10664508556
0.0428997648753
0.0159897841242
0.0115564498061
0.0116915934763
0.00934489135843
0.209311131341
0.0779429551115
0.0473255231333
0.0332418851573
0.0252914148322
0.0202247502434
0.0167276618465
0.0141799096551
0.0122712507424
0.0108978966501
0.0103238788557
0.0155146647118
0.10778739979
42.1700212537
72.1388937117
40.2887561383
11.7326575224
11.5699235775
11.8807673755
8.46351586966
3.38219992712
0.29899557157
1.81428839937
7.73719069097
10.5012537996
8.74603379765
4.60561170798
1.59757304434
0.401626467243
0.0953663580149
0.0242441301444
0.00842292160711
0.00545765991488
0.00516390637868
0.00508383062986
0.00506928363964
0.00515965532206
0.00537145000692
0.00545322230848
0.0050838106418
0.00456950665231
0.00430696188873
0.00418612832634
0.00412583249688
0.00406906089253
0.210352449733
0.0787884105623
0.0479289220701
0.0337034968311
0.0256646398828
0.0205395485145
0.0170022987517
0.0144252487505
0.0124880434257
0.0110505359762
0.0101982961028
0.010994994727
0.0470525678311
1.36865419083
31.121234458
31.8510975836
63.9857949833
43.5236305256
8.79658070853
7.40503511157
5.05073025335
1.13846381923
1.74479056362
8.21303907764
15.5259890369
17.4305485357
12.012606361
5.17268728334
1.33939854519
0.227837058448
0.0389242520611
0.00980930973028
0.00543309361387
0.00475259577733
0.00474270091681
0.00472940392699
0.00468701658356
0.00463022392924
0.0045251973312
0.00435109032479
0.00415064269304
0.00399547509709
0.00390507449485
0.00384633210671
0.00381407852429
0.0037738463378
0.211335126736
0.0795951010501
0.0485114680603
0.0341566263446
0.0260390919985
0.0208638768096
0.0172939727987
0.0146945704508
0.0127357418759
0.0112491973336
0.0101944065359
0.00975153227442
0.0126379039238
0.0490952827138
1.34425376093
5.34105387797
8.78399408146
22.4134423805
15.9968517518
1.80064365226
32.6579726848
73.3888983276
42.0176755376
9.0964416661
3.82745492495
4.21048688513
11.0956383407
21.1468905857
26.4995065668
23.3250327768
12.8272414199
4.21113767593
0.657647025541
0.0693957184575
0.0109994907444
0.00539055777364
0.00461085151132
0.00438857743499
0.00439974318451
0.00446634188602
0.00442552424775
0.00435417560973
0.00425287242851
0.0041283145991
0.00400482852714
0.00390715749201
0.00383979110397
0.00379162741375
0.00375385515426
0.00371913187184
0.212263846517
0.080365064559
0.0490722434631
0.0345974025718
0.02640810966
0.0211883756327
0.0175905178957
0.0149729750774
0.0129982221715
0.0114811012644
0.010328420775
0.00952164282089
0.00912862943444
0.0110464662745
0.0676888342404
0.180519764636
0.26302474407
0.231574793565
0.0549649030788
0.0595099903442
0.138449044683
34.3472880783
64.3602442919
50.3796974326
33.1916781628
29.5097975216
33.4462552288
36.7232856943
33.803789053
22.4589224581
8.67968331305
1.61456112296
0.116177995314
0.010865548991
0.00531391598842
0.00457432162787
0.00425006179542
0.00411572246528
0.00413336157144
0.0042465837041
0.00424306506141
0.00418621038322
0.00410614550036
0.00401672943979
0.00393148158908
0.00386081563112
0.0038068456716
0.003765311618
0.00373146865271
0.00370276954404
0.213141874542
0.0810989467924
0.0496095230531
0.0350221142137
0.0267658451634
0.0215047973673
0.017881088127
0.0152468377295
0.0132585843065
0.0117217217023
0.0105227249163
0.00959570519947
0.00889983779202
0.00839193047286
0.00800723014452
0.00768797087333
0.00738308967558
0.00710003060578
0.00692337045475
0.00710157533224
0.00929104584701
0.237075628619
21.3105274592
47.3979054118
52.3142926396
49.6521027992
45.5749341535
38.6731106986
26.0596248929
10.6231118279
1.82723967654
0.089351073171
0.00760949690384
0.00519665958194
0.00461835018973
0.00421937360744
0.00397939891856
0.00389450887377
0.00392848661475
0.0040567405436
0.00410638798455
0.00407410714664
0.0040145355356
0.00394717770094
0.00388303645029
0.0038279594207
0.00378326884888
0.00374724739957
0.0037176224575
0.0036931292085
0.213971982021
0.0817971292123
0.0501217075036
0.0354274392834
0.0271073674191
0.0218065924249
0.0181574297391
0.0155060868224
0.0135043208157
0.0119519153484
0.0107270262433
0.00975128452866
0.00896926223766
0.00833495669479
0.00780611101784
0.00734681115805
0.00693341078625
0.006558025985
0.00622723054665
0.00596418610129
0.00582837010723
0.00616729861391
0.0765731333662
3.84257403586
15.499214611
22.1851501483
20.5438061598
12.4821000473
3.27915814241
0.173860670932
0.00857178729379
0.0056075849047
0.0050419183439
0.00460132826434
0.00424162089314
0.00395851735591
0.00377553203464
0.00371857855724
0.00376869260876
0.00390358638646
0.00399753437284
0.00399273231808
0.00395220466538
0.003900028693
0.00384874629806
0.00380349496647
0.00376547807521
0.00373399858175
0.00370790101759
0.00368642485744
0.214756581641
0.0824602374223
0.0506079696912
0.0358113774143
0.0274296220804
0.0220897647072
0.0184147576
0.0157452686663
0.0137290394652
0.0121621604713
0.0109188522697
0.00991675225743
0.00909801105899
0.0084187363938
0.00784398110544
0.00734659894871
0.00690769446066
0.00651682100745
0.00617128502952
0.00587616588786
0.00564392305563
0.00549451227813
0.00546480682177
0.00647135568007
0.024196499888
0.0638681598257
0.036750691977
0.00809093468407
0.00576224851166
0.00542500594439
0.00511028243528
0.00479727115533
0.00450010061318
0.00422645716116
0.00397939172035
0.00376956771676
0.00362515693866
0.00358287161342
0.00364367571478
0.00378530931605
0.00390793059792
0.00393016336224
0.0039071493582
0.0038665652086
0.00382388439185
0.00378519091506
0.00375198433343
0.00372403148723
0.00370068770166
0.00368146312903
0.215498149581
0.0830893400852
0.0510684496229
0.0361733758879
0.0277315431921
0.0223528952742
0.0186514878347
0.0159628299256
0.0139311929362
0.0123499926164
0.0110912314801
0.010070913362
0.00923078419823
0.0085283341125
0.00793149241542
0.00741619918832
0.0069653380793
0.00656793209305
0.00621834406545
0.00591540927486
0.00566111038317
0.00545891900093
0.00531164084365
0.00521797745541
0.00516739377959
0.00513598948728
0.00509184817527
0.00501179339395
0.0048932470825
0.0047403007101
0.00456307818484
0.00437277090865
0.004177703153
0.00398501056233
0.0038004258047
0.0036355202425
0.0035162824338
0.00348100942102
0.00354585539706
0.00369349051131
0.00383388747442
0.00388077367959
0.00387344915151
0.00384227334793
0.0038057502231
0.00377157035184
0.00374178830704
0.00371647875889
0.0036952582307
0.00367775623434
0.216199279073
0.0836859808026
0.0515041303201
0.0365141124114
0.0280136588733
0.0225965285179
0.0188683617606
0.0161598614624
0.0141122662399
0.0125168836718
0.0112442202751
0.0102094223003
0.00935415827478
0.00863666937228
0.00802622263046
0.00750009639068
0.00704188917113
0.00664024049239
0.00628793017724
0.00598074980239
0.0057162588034
0.00549246865604
0.0053065604442
0.00515368860309
0.00502608365231
0.00491312909553
0.00480319249813
0.00468709607447
0.0045618032493
0.00442687165282
0.00428401890058
0.00413559824905
0.00398358274675
0.00383076016638
0.00368074757662
0.00354288374039
0.00343939760817
0.00340648802459
0.00346987730332
0.00362086676263
0.00377370566785
0.00384183737903
0.00384813349508
0.00382464145665
0.00379261516553
0.0037615548748
0.00373419213235
0.00371083814154
0.00369122387576
0.00367500178524
0.216862668818
0.0842520848549
0.051916575009
0.0368350675561
0.0282775139234
0.0228224045065
0.0190674354757
0.0163388550008
0.0142751746881
0.012665923545
0.011380465765
0.0103333478879
0.00946614939892
0.00873745883205
0.00811715742562
0.00758308864835
0.0071190491307
0.00671326166004
0.00635743639471
0.00604560274539
0.00577307410422
0.00553549030079
0.0053281018978
0.00514541374353
0.00498128651777
0.00482953531593
0.00468486285279
0.00454381395086
0.00440532527102
0.00426890707371
0.0041342304994
0.00400066342159
0.00386734442932
0.00373438351401
0.00360341053511
0.00348146184543
0.00338721452489
0.00335369457622
0.00341190388054
0.00356302331591
0.00372623374
0.00381193395718
0.00382960700814
0.00381215968458
0.00378332993266
0.00375437270361
0.00372866995276
0.00370669904301
0.00368823068281
0.0036729227258
0.217490984106
0.0847898307975
0.0523077165607
0.0371381788262
0.0285251837592
0.0230328227684
0.0192513188585
0.0165027603388
0.0144231690454
0.0128005120877
0.0115031820266
0.0104452032894
0.00956799145967
0.00883022987279
0.0082020271985
0.00766140483192
0.00719211347448
0.00678197699139
0.00642195699261
0.00610502137899
0.00582529192339
0.00557733700634
0.00535576318143
0.005155181186
0.00497053552606
0.00479766466421
0.00463380268083
0.00447773902378
0.00432941554877
0.0041886771418
0.00405475851428
0.00392611719408
0.00380081195248
0.00367762261634
0.00355688989653
0.00344386410982
0.00335431806013
0.00331819540501
0.00336912832257
0.00351771489355
0.0036906487949
0.00379044753008
0.00381704552566
0.00380392886188
0.00377713413546
0.00374944993206
0.00372478830916
0.00370373063137
0.00368605192073
0.00367139521292
0.218086812276
0.0853015439829
0.0526797519019
0.0374256729539
0.028759006042
0.0232302873145
0.0194227145209
0.0166544917996
0.0145593364476
0.0129237917599
0.0116153751221
0.0105476051866
0.00966165664457
0.00891615165405
0.00828121648609
0.0077348591728
0.00726068923624
0.0068461956241
0.00648183040932
0.00615992846047
0.00587398394749
0.00561809591674
0.00538671376787
0.00517472055436
0.0049777658236
0.00479268395683
0.00461777751
0.00445269982209
0.00429779111715
0.00415312109137
0.00401788140461
0.00389028816114
0.00376802906314
0.00364928171438
0.00353362236744
0.0034249776809
0.00333682345982
0.0032966120602
0.00333956572039
0.00348455227991
0.00366718157088
0.00377755136712
0.00380999703021
0.00379928006842
0.0037734343135
0.00374635234811
0.00372226281604
0.00370176376651
0.00368459396757
0.00367036444269
0.21865265588
0.0857901481401
0.0530355888939
0.0377003656983
0.0289817340162
0.023417567168
0.0195844593702
0.0167969577615
0.014686630686
0.0130386963305
0.0117198431205
0.0106430816281
0.00974929134022
0.00899693625154
0.00835604779606
0.00780453378042
0.00732584429168
0.00690721498383
0.00653876953788
0.00621247957325
0.0059215190934
0.0056597873901
0.00542172277132
0.00520244780882
0.00499805430338
0.00480583010892
0.0046244982584
0.00445398439272
0.00429474306681
0.00414698724657
0.00400995636756
0.00388180407711
0.00376009645004
0.00364278133095
0.00352901070924
0.00342169430903
0.00333239987973
0.0032867667588
0.00332266577854
0.00346818838637
0.00366288386446
0.00377680455153
0.00380942572873
0.00379830347607
0.00377216005993
0.00374501219858
0.0037210328749
0.00370073270805
0.00368377805366
0.00366973883868
0.190187110139
0.0930579735735
0.0561481276283
0.0394206764394
0.0300796340565
0.0241854207915
0.0201563925732
0.0172428518377
0.0150463815181
0.0133367203894
0.0119719286636
0.0108599141435
0.00993839367807
0.00916379127012
0.00850476405305
0.00793824709375
0.00744695866349
0.00701754580156
0.00663965294795
0.00630487275747
0.00600610778297
0.00573709059975
0.00549215366299
0.00526637357203
0.00505594218689
0.00485823351528
0.00467269094172
0.0045067623866
0.00439304062435
0.00440815027779
0.00469049440112
0.00546426863528
0.00704896878611
0.00978568212535
0.0139493694706
0.0197217927916
0.0271878096319
0.0360014447423
0.0437090040253
0.0445342140341
0.0388860812152
0.028585464976
0.0196377687621
0.0138648452691
0.0102246648767
0.00791351829826
0.00643723733491
0.00548898790832
0.00487429817306
0.00446850919588
0.16809674596
0.419189230822
0.789134534891
0.0353143031702
0.0960964786088
0.112170616156
0.406290621231
0.902587309732
2.04053052724
1.48667389913
0.658732953473
0.656146840922
1.34315352797
2.67224139309
1.60303098972
8.16203814324
12.2738176152
1.4064186049
1.47572727794
3.32911353833
6.69453740142
3.22555729946
11.686881561
26.6576331807
1.9512072846
2.50096713898
5.21551266902
18.6847927422
0.177481646944
0.244498756535
0.693755687899
0.0494208275168
0.152449846142
0.0935525674263
1.21149976777
1.48540987004
1.18760835675
4.30033784336
14.3985019316
5.82276978646
14.0429300418
31.9236180481
22.3424579647
50.270004855
15.5303897219
35.0509545347
22.723816676
21.4556832644
0.0571692142913
0.0214918798824
0.15616982877
0.0256154982802
0.0574002747366
0.0175272108558
0.0754428558446
0.243903933689
0.220073299079
0.285181020859
48.9904067249
43.5127846317
28.630456934
30.7498345528
107.720063513
88.1855581544
114.375433047
96.4334220963
98.1105724561
83.4771211065
117.975002224
0.0529492059147
0.0197292979112
0.114824648358
0.0180513570454
0.0613018971582
0.018033515908
0.0618855714379
113.5382058
73.2502760045
107.566083667
74.3068298875
117.684084482
72.6804689549
105.904615865
0.0397974182992
0.0182402538032
0.085807126976
0.0174040815476
0.0427222595738
0.017017768274
0.0446400382988
91.1523606447
53.0102111437
84.6782278181
66.3033292182
103.481369188
41.9390280985
75.9974447274
0.0381850234499
0.0123045967545
0.0619382789302
0.0161586047544
0.0341339180311
0.0317060481938
0.0451409536729
0.104679574888
0.148317617585
0.156538219629
21.1683194775
30.1992416919
17.0399108562
17.0256648043
55.7637994341
32.3685168713
47.374568441
29.8409330775
71.0909610834
41.3334343825
30.9748497224
0.21812556804
0.0148545571776
0.144959415615
0.0993116329369
0.393284930036
0.0715590505536
0.119046098738
0.497656764903
1.11216518578
0.356454014928
1.37070429312
4.74506550911
2.86555823765
8.08991831087
15.5384931952
10.0275492911
9.25691425318
12.1671638671
0.995389351138
7.06228495543
3.97732846664
18.7756874002
0.620259911528
0.0135758159674
0.238183825306
0.172065149288
0.613902802388
0.0604396044438
0.0849549458266
3.50317084101
0.180201418822
0.314877853663
0.615966784071
1.34509847211
0.471581914794
0.260355508268
13.4573596721
0.565643611809
0.718802752988
1.08580968983
7.60750582444
0.970163638157
0.63275479514
1.97924854131
1.07841496403
1.63853395484
2.51788665107
18.3866241467
1.38017808592
0.876819260363
0.039157270843
0.0178346292131
0.0142632816976
0.0126501114572
0.0114788861597
0.010872120588
0.0106207466889
0.0106359431094
0.0114085544266
0.0126931974917
0.013693599689
0.0157299701051
0.0198252788722
0.0240234888276
0.0257400993387
0.0228476040169
0.0161325190679
0.0100690299638
0.00692786901316
0.00570917502985
0.00513007944196
0.00485183995297
0.00472190037471
0.00463466067083
0.0045489870027
0.00445246416945
0.00435369473409
0.00425946685629
0.00417692318453
0.00411413421359
0.00408125012819
0.00409383822441
0.0041724969607
0.00433663362106
0.00459813895231
0.00494822307509
0.00535493513923
0.00577095549044
0.00614748137259
0.0064452414821
0.00663951493045
0.00672320080544
0.00670707449131
0.00661329670607
0.00646787361652
0.00629667331743
0.00612132132027
0.00595610714401
0.0058087912987
0.0659912883843
0.0783934903614
0.0314688603097
0.018987022499
0.0136327850243
0.0107698273655
0.00901780548341
0.0078483136752
0.00702665699722
0.00642191665775
0.00595288998436
0.00558078287313
0.0052914607496
0.0050578359879
0.0048577811856
0.00469245379394
0.0045652038252
0.00448274482662
0.00451714632858
0.00496431689545
0.00742920870934
0.0156249886094
0.019158135
0.00891704849108
0.00559583786715
0.00485456869322
0.00451865931926
0.00435528663394
0.00423922747314
0.00413413560788
0.00403873356946
0.00395366756164
0.00388062121491
0.00382045962071
0.00377210848818
0.00373465606881
0.00370645837244
0.00368572657564
0.00367072995138
0.00365994959096
0.00365213709595
0.00364633961058
0.00364189588812
0.00363837590257
0.0036355006665
0.00363307558313
0.0036309610607
0.00362906820302
0.00362736940185
0.0036258809011
0.00362460434377
0.0950648210521
0.0403857719525
0.0245137319585
0.0173964225655
0.0134730580464
0.0110350226305
0.00939643095011
0.00823271282289
0.00737117358404
0.00671137826799
0.00619202858811
0.00577396566059
0.00542919682853
0.00513740130741
0.00488549631796
0.00466468372408
0.00446822992812
0.00429188267863
0.00413345954033
0.00399318774676
0.0038818626622
0.00387393894051
0.00441011631061
0.00716227357273
0.0133456487629
0.0100054989232
0.0055037163667
0.00457986828204
0.00424834567184
0.00410911835151
0.00400750606822
0.0039247185345
0.00385610280658
0.00380033082697
0.00375667831577
0.00372355016924
0.0036989974801
0.00368106018473
0.00366799699138
0.00365838974081
0.00365116292074
0.00364556843932
0.00364112198103
0.00363751399498
0.00363452696789
0.0036319978406
0.00362981267652
0.00362791669797
0.00362629728688
0.00362492961457
0.104415129049
0.0458120535372
0.0280676462583
0.0199490235744
0.015415778814
0.0125723257397
0.0106482455597
0.00927505162781
0.00825552227572
0.00747487337712
0.00686178173283
0.00636944397204
0.00596533353038
0.00562584865734
0.00533394628481
0.00507774316123
0.00484893473543
0.0046416023562