/*--------------------------------*- C++ -*----------------------------------*\
| =========                 |                                                 |
| \\      /  F ield         | OpenFOAM: The Open Source CFD Toolbox           |
|  \\    /   O peration     | Version:  2506                                  |
|   \\  /    A nd           | Website:  www.openfoam.com                      |
|    \\/     M anipulation  |                                                 |
\*---------------------------------------------------------------------------*/
FoamFile
{
    version     2.0;
    format      ascii;
    arch        "LSB;label=32;scalar=64";
    class       volScalarField;
    location    "2";
    object      nut;
}
// * * * * * * * * * * * * * * * * * * * * * * * * * * * * * * * * * * * * * //

dimensions      [0 2 -1 0 0 0 0];

internalField   nonuniform List<scalar> 
104960
(
0.000588048626304
0.000457276204436
0.0013053310389
0.00244125827269
0.00172131705572
0.00132526155405
0.00125877392728
0.00133141113668
0.00158344098428
0.00202709160896
0.00225346118106
0.00219688525059
0.00215596255404
0.00205990891654
0.00180639301216
0.00145974651212
0.00113929622453
0.000941635341077
0.000847894194778
0.000794917718457
0.000755126493101
0.000727168911076
0.000705527889802
0.000680203697903
0.000657302606328
0.00065007653136
0.000657504367431
0.000678065597689
0.000712001392333
0.000778077336305
0.000905214604894
0.00111026182249
0.00140723152919
0.0017964437277
0.00225908481815
0.00275903750406
0.00325215819863
0.00369695882925
0.00406348143711
0.00433698995805
0.00451446006537
0.00460020314914
0.00460555662312
0.00454786398208
0.00444588421236
0.00431752141818
0.00417957422308
0.00404509737517
0.00392176949786
0.00381350499395
0.000661992544604
0.000496702525676
0.000461717512084
0.000446573886621
0.000439826689606
0.000437386769761
0.000437242907454
0.000438590177339
0.00044095361135
0.000443744656736
0.000446685123817
0.000450339392818
0.000454709722793
0.00045926619175
0.000464167159854
0.000469984836546
0.000477296454531
0.000487892606841
0.000510068518698
0.00057774538994
0.000816984960833
0.00138267102647
0.00142455838589
0.000877944334668
0.00075583119461
0.000718738824443
0.000697554273291
0.000684545784297
0.00067298193099
0.00066188758908
0.00065157810504
0.000642395805434
0.000634558462751
0.000628158865188
0.000623096562655
0.000619212204976
0.000616309214232
0.000614184483355
0.000612650563905
0.00061154741252
0.000610747371653
0.000610157129114
0.000609712684819
0.000609370727827
0.000609099495916
0.000608873633464
0.000608674213911
0.000608492162768
0.000608328097238
0.000608185187129
0.000687459119313
0.000538414948311
0.000499365834775
0.000479082269655
0.000466875257829
0.000459055380337
0.000453933354716
0.000450625674458
0.000448618003271
0.00044756288404
0.000447237965269
0.000447531628295
0.000448325075931
0.000449463722724
0.000450865372541
0.000452520024582
0.000454422157221
0.00045659648621
0.000459134017438
0.000462226526019
0.000466496449543
0.000475164993693
0.000505174855289
0.000615259774881
0.000938360359618
0.0012333746833
0.000847153734367
0.000721186032851
0.00068387663002
0.00066802931387
0.000657363210713
0.000647759669794
0.000639252049639
0.000632051372042
0.000626224755652
0.000621688893268
0.000618259184215
0.00061571685614
0.000613852271309
0.000612485853527
0.000611475002755
0.00061071481025
0.000610133403296
0.00060968270637
0.000609327435001
0.000609038706798
0.000608793995793
0.00060858046361
0.000608394849076
0.000608236827181
0.000701556673726
0.000560639011
0.000520657150728
0.000498965210545
0.000485206568333
0.000475794754441
0.000469115862642
0.000464321519203
0.000460920825107
0.000458606170675
0.000457169966544
0.000456460000699
0.00045634081206
0.000456670153379
0.000457317803857
0.000458196750621
0.000459267269306
0.000460512068634
0.000461916587735
0.000463461283347
0.000465120365131
0.000466897793323
0.000469036625406
0.000473689663917
0.000492164412167
0.000562146122746
0.000772984244681
0.00106493151183
0.000818696668703
0.000704052949495
0.000669629051655
0.000656958597726
0.00064730596063
0.000638898832538
0.000631799214442
0.000626129340123
0.000621772982299
0.000618496010081
0.000616047475412
0.000614211252319
0.000612818555241
0.000611745949104
0.000610909758357
0.000610254810419
0.000609741157507
0.000609334903637
0.000609006967536
0.000608736470549
0.000608512280744
0.000608327497495
0.000710883898599
0.000575132512142
0.000534839182418
0.000512522872097
0.000498061510854
0.000487918897802
0.000480508117796
0.000475002806064
0.000470932225183
0.000468011377954
0.00046605534683
0.000464927305154
0.000464503603899
0.000464652990211
0.000465231897408
0.000466101133557
0.000467159032981
0.000468368932471
0.000469716815702
0.000471167784537
0.000472646199193
0.00047400816444
0.000475080739746
0.000475778122843
0.000476688127181
0.000482085452497
0.000508839442934
0.000602004115846
0.000840487609627
0.000920638298816
0.000730086108665
0.000678234009587
0.000660147663948
0.000649790834367
0.000640850753552
0.000633436606894
0.000627616539931
0.000623167978265
0.000619779870217
0.000617174534724
0.000615142511078
0.000613535531678
0.000612255252973
0.00061123940632
0.000610444182831
0.000609830133664
0.000609357532459
0.000608990426909
0.000608702080836
0.000608472794716
0.000717669486526
0.000585618160839
0.000545210432989
0.000522542705018
0.000507676046416
0.00049711033199
0.000489273772343
0.000483354395187
0.0004788996073
0.00047564827721
0.00047344433934
0.000472180563656
0.000471756412818
0.000472050727948
0.000472912951256
0.000474174388315
0.00047567835742
0.000477327528377
0.000479098725275
0.000480986176724
0.000482923562518
0.000484739845299
0.000486132502594
0.000486778701015
0.000486506049809
0.000485673109221
0.00048724578658
0.000502884304627
0.000564447727095
0.000735495869478
0.000900849733661
0.000746020623422
0.000688939053278
0.00066720764165
0.000655227369094
0.000645208100344
0.000637138192504
0.000630877827737
0.000626027260974
0.000622200489847
0.000619121194088
0.000616613029615
0.000614566093908
0.000612916157158
0.000611622257254
0.000610642752643
0.000609922092772
0.000609395272464
0.000609003553015
0.00060870170297
0.000722906375351
0.000593695320612
0.000553249303016
0.000530349484586
0.000515208036814
0.000504354685929
0.000496229672776
0.000490033646776
0.000485334059293
0.00048190115201
0.00047962181297
0.000478436713194
0.000478282682792
0.000479046260432
0.000480548438584
0.000482569822799
0.00048490071288
0.000487394273719
0.000490006358513
0.000492766804566
0.000495664273179
0.000498517099127
0.000500908481262
0.000502285425183
0.000502215547611
0.000500624797404
0.000498119495213
0.000497983207592
0.000511502235892
0.000567758141929
0.000720667571999
0.000864589880147
0.000750239878846
0.000701088861103
0.000678749049228
0.00066435738005
0.000652778290361
0.000643713031053
0.000636602654987
0.000630844569268
0.000626042525037
0.000621992443367
0.000618595412713
0.000615806364056
0.000613609602204
0.000611976694192
0.000610829145602
0.000610042781028
0.000609489253105
0.000609069141386
0.000727114551558
0.000600183309423
0.000559729571322
0.000536655492731
0.000521302100347
0.000510225528091
0.000501877572713
0.000495473107099
0.000490605916448
0.000487093554573
0.000484896325698
0.000484046183709
0.000484556030461
0.00048632095828
0.000489075152438
0.000492458738666
0.000496141787406
0.000499921222134
0.000503790084109
0.000507890819924
0.00051232766588
0.000516931441687
0.000521057497781
0.000523821421573
0.000524424641362
0.000522617288218
0.000518813351124
0.000514404647802
0.000514171102684
0.000531849788636
0.000599603551469
0.000762592994245
0.000839432881434
0.000758183316307
0.000716871564905
0.000695458473073
0.000678899865755
0.000665685855608
0.00065512811454
0.000646287404974
0.000638567480065
0.000631770369463
0.000625883274932
0.00062094582852
0.000617036007015
0.000614192182531
0.000612298242557
0.000611100973548
0.000610307999023
0.000609688458573
0.000730597621064
0.000605553761154
0.000565102527066
0.000541882586669
0.000526347276349
0.000515076971697
0.000506535876741
0.000499957345981
0.000494974115211
0.000491483272352
0.000489587656844
0.000489527921935
0.000491528701659
0.000495543272913
0.000501080162326
0.000507377360854
0.000513682716763
0.000519488427621
0.000525001636773
0.000531002582271
0.000537813453417
0.00054508805626
0.000551722022804
0.00055625843294
0.000557494171412
0.000554987951484
0.000549469535636
0.000542389624606
0.000536691343145
0.000540247444973
0.000572983320801
0.000675812027001
0.000841971443873
0.000792793482955
0.000739093704069
0.000724614264769
0.000715087293518
0.000702360263115
0.000688874377152
0.000675671629943
0.000662886734629
0.000650871009545
0.000640050834436
0.000630713652942
0.000623253062226
0.000618014230935
0.000614784710486
0.000612972323827
0.000611864850724
0.000610847488752
0.000733547458402
0.000610102269092
0.000569654209138
0.00054630163697
0.000530597363488
0.000519144711721
0.000510422360799
0.000503689817905
0.000498642097615
0.000495322006788
0.00049414326686
0.000495917774262
0.00050168775278
0.000511933672298
0.000523564799837
0.00051436359226
0.000466950224255
0.00042502470281
0.000409079871764
0.000412433886612
0.000441427002749
0.000503735685337
0.000568865765439
0.000603059386832
0.000610489785378
0.000605710519518
0.000595876787353
0.000584516197595
0.000574544167874
0.000571878952345
0.000591396494975
0.000665198769259
0.000802428874973
0.000778753502807
0.000706993143318
0.000709944792993
0.000729797380478
0.000739963158527
0.000737881727309
0.000727220592548
0.00071106659267
0.000691890511557
0.000671906879281
0.000652517681931
0.000636208837319
0.000625551798958
0.000620142008364
0.000617825321763
0.000616378761019
0.00061379820296
0.000736093044203
0.000614027098729
0.000573579274504
0.000550100232655
0.000534232157069
0.000522600773755
0.000513702739003
0.00050683622857
0.000501799793124
0.00049891735133
0.000499342203738
0.000505751653611
0.000524086470103
0.000509181553625
0.000491552069457
0.00120885946583
0.00250386662601
0.00397145231251
0.00370186028491
0.00450361924886
0.00429152357049
0.00265584102965
0.00120261576866
0.000567333587306
0.000551185566448
0.000646764487814
0.000661665119278
0.000647242488657
0.000632233771545
0.000626605300852
0.000644826222252
0.0007069611742
0.000802627726189
0.000940480493985
0.00105597568419
0.00119228034205
0.00133022735834
0.00136522965258
0.00133558306146
0.0013802268506
0.00155890984521
0.00173518403452
0.00156931157687
0.000968819964266
0.000695267742609
0.000648829168049
0.000642937949782
0.000653506854689
0.000663427444276
0.000636976904917
0.000738325639904
0.000617469169285
0.000577018973074
0.0005534182331
0.000537390462155
0.000525583698779
0.000516517314344
0.00050954573824
0.000504636148082
0.000502650244305
0.000506562544515
0.000525086892953
0.000540275589453
0.000755094197814
0.00366055743563
0.00919618952881
0.0146817192693
0.0240541207596
0.507961056613
0.804098409212
0.968132645586
0.830981504841
0.476516496664
0.121406176107
0.00923183182575
0.000782114193074
0.000651373996149
0.000710181561967
0.000709493768415
0.000707445320044
0.000726816246088
0.000773983142154
0.0013271002385
0.00418111939931
0.00865564711898
0.0109661124884
0.0104214969951
0.00919115995958
0.00875044404133
0.00958694498294
0.0118198006587
0.0142983998497
0.0150679627689
0.0105587200129
0.00292091970007
0.000997754077061
0.00100105000062
0.00145645864217
0.00129251209098
0.000887406728303
0.000740312235216
0.000620533302155
0.000580081379091
0.000556366599431
0.000540187023386
0.000528212999603
0.000518990863991
0.000511949033376
0.000507301549804
0.000506836325786
0.000516557883385
0.000572959963666
0.00121115039277
0.00625349552265
0.1040869659
0.477490023482
1.12996481785
1.65326082521
1.34830706798
1.16014243427
1.06197839662
0.743673883149
0.261735412608
0.0296187321873
0.0015213020386
0.000688727929872
0.000757416219614
0.000764064622155
0.000808903921418
0.0024981463526
0.0202997404992
0.05227068292
0.0563569549282
0.0421766477255
0.0266331408106
0.0161739435641
0.0102955896855
0.0071584317873
0.00636117583976
0.00837988097397
0.010802584993
0.0129397207002
0.00733712883287
0.00350398835425
0.00299645371706
0.00237499869009
0.00175417660554
0.00130239189052
0.000742102839079
0.000623299578983
0.000582851611065
0.000559035944761
0.00054271915164
0.000530592809317
0.000521230543432
0.00051414005987
0.000509824325932
0.000511328660548
0.000529362941848
0.000982718103376
0.00485616926924
1.18685744923
1.83323161839
0.845069127898
0.783990709755
0.873692198823
0.880515679884
0.552964503353
0.148925597893
0.0109353614668
0.000952311988449
0.000758285299782
0.00109390135363
0.00972342493295
0.0769313847112
0.11544649536
0.0846355472012
0.0521425437216
0.035522612465
0.0248555596379
0.015070347364
0.00767504253571
0.00382101145622
0.00424581865131
0.00941102224948
0.0117291560743
0.0114633185042
0.00716170172632
0.00522088048077
0.00512787929093
0.0050416456084
0.00293479141307
0.00128344442795
0.000743735562725
0.000625829778243
0.000585396859209
0.000561499699349
0.000545067608099
0.000532810219476
0.000523321309007
0.000516165905066
0.000512066717698
0.000515134645612
0.000539811135608
0.000763154544663
0.64587292368
2.04305388675
0.627423043216
0.687970164438
0.825702468935
0.823193791072
0.613553815358
0.222957002754
0.0232511033391
0.00170855035025
0.00197440124713
0.0507586286387
0.19496368665
0.165625334881
0.0901543301775
0.043925525266
0.0187390519651
0.00816926772153
0.00546395949481
0.00416065638951
0.00272499840984
0.00165207914393
0.00233357409292
0.00879635342659
0.0120366241212
0.0103002759103
0.00904879578983
0.00611637222664
0.00417529341707
0.0031232755309
0.00268926485653
0.00165233277529
0.000745238951427
0.00062817083523
0.000587768187223
0.000563813896493
0.000547294260838
0.000534931799645
0.0005253259976
0.000518049028711
0.000513844417039
0.000516938448594
0.000541108673802
0.000749904596267
0.684062953743
2.12884905316
0.733532846034
0.591170578018
0.742477506733
0.726805298614
0.517215790832
0.194947242375
0.0195155555724
0.00385786934036
0.0959591513052
0.293976927369
0.287477335004
0.183159520008
0.0821964601363
0.0314448611127
0.0113606143602
0.00372768311059
0.00125093466744
0.000864326704264
0.000831001941544
0.000801639745386
0.000861353294147
0.00233819058088
0.0103218517786
0.0156269053275
0.0107565364014
0.00481395969487
0.00199592244465
0.0015067561002
0.0014643469092
0.00122318478577
0.000746633859082
0.000630356502347
0.000590001065718
0.000566016128158
0.000549439617148
0.000537001220965
0.000527289845634
0.000519828700523
0.00051515931466
0.000516527896674
0.000532466661396
0.000698082565558
0.00266001723595
0.855171214882
1.94825576275
1.22409864867
0.499610877955
0.529240796395
0.514627410451
0.330860699809
0.108493895301
0.0119488826812
0.093555475199
0.363109837697
0.511936991593
0.451027398644
0.247830317099
0.088852754053
0.0241234110111
0.0061546298163
0.0017299397154
0.000757652954594
0.000685495241651
0.000738783735843
0.000754862864991
0.000761387335222
0.000772951810574
0.000794273370836
0.000804407085643
0.000770508508426
0.00071983471231
0.000693897107805
0.000682458025168
0.000674430789309
0.000666829660909
0.000747934874749
0.00063241008058
0.000592118027185
0.000568127394643
0.000551523826803
0.000539040458021
0.000529245327664
0.000521580103757
0.00051627507027
0.000515192487008
0.000525966945976
0.000570511504439
0.00123598710581
0.00435922494361
1.08384016126
0.888282323744
1.54747427805
1.22101380681
0.336447335906
0.287202758255
0.174119814469
0.0436963650115
0.0938333570776
0.398491596239
0.71822003836
0.819094606072
0.605294548403
0.276382891143
0.0733158935639
0.0133515752136
0.00248488856957
0.000776383294415
0.000608740625564
0.000657671419965
0.000701026832685
0.000717919085614
0.00072185829155
0.000719245156691
0.000709822244096
0.000692744067972
0.000672216866461
0.00065539181
0.000644726696874
0.000637384939433
0.00063278720421
0.000627446253076
0.000749152586995
0.000634344319473
0.00059412802931
0.000570153788862
0.000553550098514
0.000541051076968
0.000531200286332
0.000523355834455
0.000517465502402
0.000514335128555
0.000516903969553
0.000535121457495
0.00061344984451
0.000995360829139
0.00581552789026
0.0177130888379
0.0342582578281
0.136337424057
0.147979251288
0.0282593565672
0.698427707792
1.77626521665
1.22868073551
0.334060473571
0.159552559727
0.210262223463
0.51095109244
0.905723264528
1.13151025499
1.03657498893
0.630542135715
0.220376334061
0.035937435116
0.00407397268764
0.000810097013265
0.000588239891419
0.00060838706666
0.000630258675915
0.000659711976261
0.000684328999575
0.000690462836618
0.000687662228948
0.000678990735402
0.00066675662724
0.000653951138998
0.000643293220414
0.00063546937209
0.000629555844548
0.000624750589609
0.000620357092208
0.000750294513345
0.000636168826598
0.000596034425781
0.00057208909458
0.00055550323008
0.000543011095375
0.000533135101117
0.000525168353078
0.000518866155991
0.000514435708585
0.000512789247564
0.000516208205134
0.000529517221857
0.000570109007688
0.00117630164566
0.00230808224872
0.00344752112491
0.00369443940987
0.00141741031393
0.00170787530972
0.00422783613222
0.908952075213
1.70339322351
1.5039911443
1.13628556887
1.08320640288
1.25576561813
1.40907994326
1.35131282112
0.97965822424
0.431975863097
0.0846680407431
0.00648221651309
0.000786119661428
0.000587606936699
0.00058065532466
0.000580287244844
0.000596070034705
0.000624674709282
0.000655807976404
0.000667733674238
0.000667693647292
0.000661657263492
0.000653128680585
0.00064436039814
0.000636730715555
0.000630624212259
0.000625722850321
0.000621613766531
0.000618079392152
0.000751366167466
0.000637889059166
0.000597838572208
0.000573928869695
0.000557370118015
0.000544899019465
0.000535022961511
0.000526991344862
0.000520447942385
0.000515315354993
0.000511777076283
0.000510276854443
0.000511371074358
0.00051513241543
0.000520148869328
0.00052257967205
0.000519571519563
0.000511442418955
0.000495352085061
0.000466157393459
0.000475083346018
0.00868420222565
0.66466952595
1.39631986023
1.60389296637
1.61516008802
1.57336545033
1.4263065418
1.06039241027
0.503256052635
0.095352237986
0.00497966569369
0.000636999001433
0.000585971848829
0.000565976919021
0.000551444889586
0.000550987376362
0.000567725891099
0.000597045983125
0.000631177723271
0.00065017342036
0.000653960974842
0.000650588518263
0.000644510612068
0.000638036483388
0.000632181511227
0.000627239110104
0.000623117926028
0.000619637297879
0.000616700848763
0.000752372265618
0.000639509321104
0.000599540587359
0.000575667881813
0.000559139606874
0.000546695835583
0.000536834146492
0.000528777446411
0.000522110305099
0.000516629993706
0.00051227153442
0.000509041739353
0.000506915240417
0.000505691731537
0.000504935991782
0.000504157112469
0.000503105315084
0.000501991160288
0.00050159406217
0.000503256330065
0.000506562250187
0.0004835089938
0.00311173168636
0.150751178732
0.573443002735
0.819706462201
0.805547300217
0.55608965372
0.17226994956
0.00969074124383
0.000646641066207
0.00058482895782
0.000567546340323
0.000549799140691
0.000536021525355
0.000527607777503
0.000529205311297
0.000545854766752
0.000575406835587
0.00061093887962
0.000635841091591
0.000643720826765
0.000642939924097
0.000638649818021
0.000633607567802
0.000628876683317
0.000624752541154
0.000621234819772
0.00061824527043
0.000615731865274
0.000753316926234
0.000641034019337
0.000601142009867
0.000577303599714
0.000560804010334
0.000548387681626
0.000538546213869
0.000530486754279
0.000523762998018
0.000518117420517
0.00051339877501
0.000509503479803
0.00050632151014
0.000503694398428
0.000501415978014
0.00049929413549
0.000497239208674
0.000495325949849
0.000493851108538
0.000493398216818
0.000494904849279
0.000499607614457
0.000506412486977
0.000498581128287
0.00119616494727
0.00306956835012
0.00187729889508
0.000571789990455
0.000558055513841
0.000560412331012
0.000550430313168
0.000539904152853
0.000530290409873
0.000521816810382
0.000514701287682
0.000510473219878
0.000513433305471
0.000529326130253
0.000558487723994
0.000594845343592
0.000623814551769
0.000635638914503
0.000637330741835
0.000634490336514
0.000630432164068
0.000626452187175
0.000622907111011
0.00061984089896
0.000617220510766
0.000615016135317
0.000754204197959
0.000642468055422
0.000602646377355
0.000578837307455
0.000562361596141
0.000549968705127
0.000540146788937
0.000532093612092
0.000525346407823
0.000519622762352
0.000514739548955
0.00051056311645
0.000506975225051
0.000503853704949
0.00050107380674
0.000498532328921
0.000496183601489
0.000494061841843
0.000492307905375
0.000491172451654
0.000491002453381
0.000492194866223
0.000495100944447
0.000499818493447
0.000505845374241
0.000512007668127
0.000516854062863
0.000519178581834
0.000519218990101
0.000517497868632
0.000514638063788
0.000511175322066
0.000507413017656
0.000503605126343
0.000500129948665
0.000498387500899
0.000502119139272
0.000517002233236
0.000545225019401
0.000582001054585
0.000613671404176
0.000629073119499
0.000633058308062
0.000631464716871
0.000628135867307
0.000624674205649
0.000621536034413
0.000618800263296
0.000616456461907
0.000614482928237
0.000755038130774
0.00064381706581
0.000604059133308
0.000580273804609
0.000563816062308
0.00055144084975
0.000541634533811
0.000533589178196
0.000526832981256
0.000521071524235
0.000516108828862
0.000511802746682
0.000508038363956
0.000504714315739
0.000501741130343
0.000499050581603
0.00049661196675
0.000494438276237
0.000492598365759
0.000491203340785
0.000490383924941
0.00049025251673
0.000490855302954
0.000492118838592
0.000493807024082
0.000495531595026
0.000496860197824
0.000497507106024
0.000497523923268
0.000497020734888
0.000496140272972
0.000494978543365
0.000493556334684
0.0004919327886
0.000490370480946
0.000490022262753
0.000494086818955
0.000507879875564
0.000534788605769
0.000571571098185
0.000605178862274
0.000623701934073
0.000629759585101
0.000629249304589
0.000626479246948
0.00062337956737
0.000620526242905
0.000618030470223
0.000615891519085
0.00061408704808
0.000755822768067
0.000645087180275
0.000605386955643
0.000581620171253
0.000565174723437
0.000552811348624
0.000543015719433
0.00053497649936
0.000528216713852
0.00052243575283
0.000517432054348
0.000513061143448
0.000509211919611
0.000505794331045
0.000502735452735
0.000499981824451
0.000497506140694
0.000495305758184
0.000493407844234
0.000491852793093
0.000490675082021
0.000489879151881
0.000489419325173
0.000489192550192
0.000489052271179
0.000488847070288
0.000488473819638
0.000487926280392
0.000487315300122
0.000486734078483
0.000486227060476
0.000485759149257
0.00048523590782
0.000484597971522
0.000483998118776
0.000484371357959
0.000488460197759
0.000501150084367
0.000526546051258
0.000562976761958
0.000598155557937
0.000619348386337
0.000627235459093
0.000627648139317
0.000625304678387
0.000622455096453
0.00061979675691
0.000617469059234
0.000615474922942
0.000613790470409
0.000756561991105
0.000646284764236
0.0006066372159
0.000582884744427
0.000566446873339
0.000554090302837
0.000544300825104
0.000536265109231
0.000529503163575
0.000523711064754
0.000518684640067
0.000514278877292
0.000510385339985
0.000506919972655
0.000503817618566
0.000501030626354
0.000498530390684
0.000496302279475
0.000494347621412
0.00049266849771
0.000491253574905
0.000490063687562
0.000489025593737
0.000488040618065
0.000487010577162
0.000485875376414
0.000484645812264
0.000483413673945
0.000482323782876
0.000481486325025
0.0004809358512
0.000480612574675
0.000480392510478
0.000480165714395
0.000480013264364
0.000480699526307
0.000484598784776
0.000496196671758
0.000520022185509
0.00055585924726
0.000592457571075
0.000615925259381
0.000625381336756
0.000626544840514
0.000624509421034
0.000621820035105
0.000619285293747
0.000617068380639
0.000615173408866
0.000613573669062
0.00075725947794
0.000647416204177
0.000607817668339
0.000584076555011
0.000567642777977
0.000555289122545
0.000545502101647
0.000537467370173
0.00053070320816
0.000524903878519
0.000519863960667
0.00051543839222
0.000511520307973
0.00050802871045
0.000504901920061
0.000502094121236
0.000499574118066
0.000497318736445
0.000495313561878
0.00049354003839
0.000491965258147
0.000490533296662
0.000489165531818
0.000487774732419
0.000486291213619
0.000484693970061
0.000483034271362
0.000481434184042
0.000480048122365
0.000478997561802
0.00047832362925
0.000477970061888
0.000477812773858
0.000477724901231
0.000477741941757
0.000478491338417
0.000482045936212
0.000492561341195
0.000514870301821
0.000550060435571
0.000588054987898
0.000613434774016
0.000624142318816
0.000625856650698
0.000624015675038
0.000621413981296
0.000618949528149
0.000616801045849
0.000614970331562
0.00061342655891
0.000757918698997
0.000648488707872
0.000608937565587
0.000585206384415
0.000568774545881
0.000556421227762
0.00054663418344
0.000538598711559
0.000531832218777
0.000526028030104
0.000520980098181
0.000516543380216
0.000512611819774
0.000509105845533
0.000505965176277
0.000503144274646
0.000500609683998
0.000498332886172
0.000496290665086
0.000494454193348
0.000492781326931
0.000491210747544
0.000489664999225
0.000488067388968
0.000486365779291
0.000484554284679
0.000482695846832
0.000480916344725
0.000479368486437
0.000478180178194
0.000477400072586
0.000476977683456
0.000476793105099
0.000476713871546
0.000476738939625
0.00047736833773
0.000480399711615
0.000489703551176
0.000510402330635
0.000544695887749
0.00058366814832
0.000610886623924
0.000623001890901
0.000625344866225
0.000623717687661
0.000621191096765
0.000618768089399
0.000616654403361
0.000614855293164
0.000613338888893
0.000738314569372
0.00065657393519
0.00061380684992
0.000588767668819
0.000571656741768
0.000558896787352
0.000548842250902
0.000540618455947
0.000533711806756
0.000527798312758
0.000522661782669
0.000518151035682
0.000514156250698
0.000510595518892
0.0005074068258
0.000504542853742
0.000501967723682
0.000499649803809
0.000497562292786
0.000495673790278
0.000493941625135
0.000492306276193
0.000490692377954
0.000489025376221
0.000487258146582
0.000485385620812
0.000483423429317
0.000480317383006
0.000470116342937
0.000442307225117
0.000400918822821
0.000377059640628
0.000403506084753
0.000499028489295
0.000676824641381
0.000951523504685
0.00133936593504
0.00184012096445
0.00234684513845
0.00256004980704
0.00241999456176
0.0019482812018
0.0014739524302
0.00114705112793
0.000936042744066
0.000804300505686
0.000725488245902
0.000680423537018
0.000655134163639
0.000640316685353
0.0019281867194
0.00444525575476
0.00650740437353
0.000691046135349
0.00125296235745
0.00156808093562
0.00406494977208
0.00728810676348
0.00753025313976
0.00821408317291
0.00570747519919
0.0057385542751
0.00787814767567
0.0113992414852
0.0112207912583
0.0305315157986
0.052565741952
0.00970314470785
0.0114342306214
0.015748759588
0.0834545206745
0.0207475625544
0.0530959226523
0.167270981214
0.0150172177646
0.0182052479322
0.0770602707742
0.172898299262
0.00248120319314
0.00372141359419
0.00622911715167
0.00105528709462
0.00218943044544
0.00176686295466
0.00769177308491
0.00839658013017
0.00882776915824
0.00941764693901
0.320148019618
0.0768843769504
0.300728913863
0.59917165403
0.394542805689
0.784832990704
0.340599714235
0.634910198651
0.301234018464
0.206361609105
0.00143668420558
0.000833127267627
0.00310434163698
0.000889134078009
0.00142853103985
0.000736898114041
0.00185561872271
0.00404506359856
0.00350905699388
0.00451744234153
0.424443918952
0.28569085536
0.115128784126
0.121941891803
1.54232112279
1.01218640272
1.69648310464
1.27085178864
1.42088078243
0.986415555893
1.72556466103
0.00153587469896
0.000812872205076
0.00270580940752
0.000757831157075
0.00163965535442
0.000764763063702
0.00174929006209
1.70251738739
0.551928615993
1.77942246837
0.660302985415
1.70104823532
0.551325958736
1.7901561222
0.00132101109318
0.000776045687101
0.00234534596083
0.000753191428981
0.00136200669525
0.000744117226405
0.00142043448554
1.77208023436
0.677833610969
1.79828213704
0.681569077357
1.76445072661
0.333514758363
1.72985135431
0.00122804887616
0.000606684232062
0.00161816896033
0.000719578277536
0.00116914701797
0.00106418253249
0.00131125208557
0.00241740065825
0.00335308096072
0.00320458518875
0.150703823259
0.919324045217
0.0617037617865
0.294128493226
1.48312679813
1.02973172058
1.31057904391
0.170966734095
1.67382467389
1.22205829441
0.935733601966
0.00339852670604
0.000670404402971
0.00244908020595
0.0022219886562
0.00762810289089
0.00151964080019
0.00212643278108
0.0057577535794
0.00836458707384
0.00441427102879
0.00849444614592
0.0786315976843
0.0445674229235
0.0676037179482
0.109668681391
0.383957609783
0.124404244164
0.316521621467
0.00280255483655
0.0717426896131
0.11850678947
0.158561979671
0.00648597305415
0.000625136821673
0.00286643675908
0.00252994363298
0.00630399104713
0.00109553808191
0.00136295549293
0.0113936247542
0.00223354540413
0.00342907062544
0.00533255142835
0.00601948826948
0.00471356646701
0.00295626455504
0.046240305749
0.00556022079905
0.0069027167586
0.00671656041816
0.0247142035231
0.00835316362443
0.00614636727864
0.0133839454614
0.00997802867887
0.0142007904506
0.0245736653332
0.0993733151257
0.0123805766206
0.00847140413441
0.000428612572314
0.000414721058019
0.000482151146233
0.000532494714682
0.000567934912772
0.000611495499922
0.000658596925583
0.000715000707107
0.00081333719312
0.000937833378677
0.00103958033754
0.00120448461258
0.001486576662
0.00176418316982
0.00190360527865
0.00178202537094
0.00140974284067
0.00104308679985
0.000861436009398
0.00080219019747
0.00076916826262
0.000748715234388
0.000736811556675
0.000726769459544
0.000715902809639
0.000704250930188
0.000691605571926
0.00067847668436
0.000665444526733
0.000652854749618
0.000641012343237
0.000630025411006
0.000620502295166
0.000614300841997
0.000614505831227
0.000624050615569
0.00064312874853
0.000668666377337