/*--------------------------------*- C++ -*----------------------------------*\
| =========                 |                                                 |
| \\      /  F ield         | OpenFOAM: The Open Source CFD Toolbox           |
|  \\    /   O peration     | Version:  2506                                  |
|   \\  /    A nd           | Website:  www.openfoam.com                      |
|    \\/     M anipulation  |                                                 |
\*---------------------------------------------------------------------------*/
FoamFile
{
    version     2.0;
    format      ascii;
    arch        "LSB;label=32;scalar=64";
    class       volScalarField;
    location    "2";
    object      p;
}
// * * * * * * * * * * * * * * * * * * * * * * * * * * * * * * * * * * * * * //

dimensions      [0 2 -2 0 0 0 0];

internalField   nonuniform List<scalar> 
104960
(
11.1621811314
11.697296205
12.1834887477
12.5527673528
13.4357531211
13.6086023207
13.2609035432
12.641400246
11.7080922422
10.3883364521
8.76838866186
7.01394045773
4.96000257494
2.57075328411
0.0381845632281
-2.52830509448
-5.07271444638
-7.49725176027
-9.69469445658
-11.6020938213
-13.1674937936
-14.3616063904
-15.1730623849
-15.6086293967
-15.6711823158
-15.3799436143
-14.7539548858
-13.8363225932
-12.7032124502
-11.4206886106
-10.0123280624
-8.58634327289
-7.19990886609
-5.90174066572
-4.72666037225
-3.69376569271
-2.808685073
-2.06744053307
-1.46009753777
-0.97382600107
-0.59441497962
-0.307088031618
-0.0977082105379
0.0462392030663
0.135895785982
0.18119433975
0.190367975625
0.170094646118
0.125812019553
0.0616985739027
12.4498692671
12.3924005131
12.6724249877
13.0878961968
13.4212448819
13.3745235673
12.9500755072
12.2102944138
11.1317853679
9.70109687649
7.98834506052
6.03126932743
3.79004741607
1.30794533642
-1.28841543643
-3.89772715602
-6.43521414725
-8.79944064982
-10.899515648
-12.6724454774
-14.0682108521
-15.0729672883
-15.7048925963
-15.983238385
-15.8930505346
-15.4423223751
-14.6669481287
-13.613983942
-12.3511442539
-10.9489425767
-9.48377544596
-8.03033424139
-6.64892658546
-5.38293433101
-4.25834412478
-3.28566224838
-2.46369972021
-1.78374796624
-1.23304588159
-0.797133872083
-0.461165995546
-0.21068799258
-0.0322710858333
0.0861475781936
0.15522023904
0.18411758946
0.18044305643
0.15033076317
0.0986232082165
0.0291200934937
13.8250701237
13.407783882
13.5675144493
13.7304373667
13.790791394
13.6079225445
13.1181133866
12.3028290962
11.1417229108
9.62660516604
7.78042658822
5.63281724441
3.2101651409
0.574155688889
-2.1724659566
-4.92044271051
-7.56797761322
-10.0167430733
-12.1782178852
-13.9794224972
-15.365519122
-16.3066597847
-16.8023275903
-16.8815777728
-16.5951724193
-16.0397214371
-15.1956122681
-14.0225780665
-12.6365884823
-11.1145017221
-9.54264684226
-8.00530778864
-6.56642002341
-5.26876939886
-4.13364256859
-3.16515416563
-2.35598632157
-1.69265200003
-1.15919945134
-0.73933676644
-0.417433758612
-0.178922690765
-0.0104866358673
0.0998378131078
0.162601774367
0.18687212465
0.180157087249
0.148444230848
0.0964238331648
0.0280123082998
15.4596177386
14.8347229834
14.8558504673
14.8346323411
14.6972394887
14.3539934291
13.73126365
12.7754012413
11.4460536369
9.72173604553
7.60883298994
5.14119929953
2.37960520048
-0.583898550264
-3.63297998062
-6.64719991054
-9.51666765442
-12.1445380849
-14.4437500612
-16.333437188
-17.7413575526
-18.615746936
-18.9412135874
-18.7493051966
-18.1158289928
-17.1452795457
-15.9478978215
-14.6442306239
-13.1347298394
-11.3837404553
-9.64151607062
-7.96848789871
-6.43781358795
-5.09087707595
-3.94066066875
-2.98006849641
-2.19141841961
-1.55358446683
-1.04590485431
-0.649654752692
-0.348265857756
-0.127089678252
0.0269184628589
0.125421869733
0.178784541601
0.195988177097
0.184441797496
0.149890260682
0.0966298819745
0.0280943949519
17.3746840163
16.589908801
16.5211096147
16.3812343859
16.110282634
15.6308040366
14.8607175231
13.7217827813
12.1470846904
10.0933856524
7.55631488678
4.58168393283
1.26839867803
-2.24162531098
-5.78907240471
-9.22865173613
-12.4478259555
-15.3627098975
-17.8973435528
-19.9621651192
-21.4504348459
-22.2627011161
-22.3480198644
-21.7368718108
-20.5452742261
-18.9475639333
-17.1336914287
-15.2696391898
-13.4802574149
-11.7593692018
-9.78191671457
-7.89155726638
-6.23800150879
-4.82880797797
-3.6670488557
-2.72579821499
-1.97109482834
-1.37108192814
-0.899303593912
-0.534557217721
-0.259673869446
-0.0603522150779
0.0757204025458
0.159505422176
0.200989365639
0.209126081375
0.191346943821
0.153110882302
0.0980384632886
0.028696054409
19.5733841744
18.6616679959
18.5542181307
18.3611314817
18.0239490151
17.4596566853
16.567097439
15.2355031746
13.3583498735
10.8559343991
7.70544397987
3.96957429603
-0.192344260905
-4.54766178966
-8.84971186334
-12.9054829096
-16.6101684293
-19.9269101482
-22.8240527856
-25.2087248727
-26.9053353236
-27.7073761593
-27.4788247749
-26.2388635469
-24.1763434736
-21.5928419047
-18.8129026299
-16.108861452
-13.6628710133
-11.5657455126
-9.77778212719
-7.78762026948
-5.92242242898
-4.45415746312
-3.2970196742
-2.39843169102
-1.69896299249
-1.15325142668
-0.729088676394
-0.403745818411
-0.16045183252
0.0139375568432
0.130205672798
0.197794729381
0.225854133488
0.223476897429
0.198562990701
0.1564173745
0.0996275423179
0.0294147020704
22.0409240312
21.0382604872
20.9435580449
20.7677611656
20.4456256992
19.8772157942
18.928940001
17.4394157403
15.2361806708
12.1704779257
8.17315341025
3.32014552981
-2.12807828006
-7.76378118598
-13.1634598644
-18.0456306149
-22.3446055198
-26.1547444773
-29.5779018117
-32.5472558067
-34.745884571
-35.7179115797
-35.1213724658
-32.9399613193
-29.5105555973
-25.3811572034
-21.1166348439
-17.1553573528
-13.757608295
-11.0223410445
-8.93546884368
-7.32594584884
-5.4924571151
-3.9196751062
-2.81309865835
-1.99770620061
-1.38457453912
-0.913866283477
-0.55002004941
-0.271339516173
-0.0632172297155
0.0853820046835
0.182763431446
0.235216855279
0.249767029535
0.236001928516
0.203554260336
0.158142873227
0.100685602616
0.030044534533
24.7400020449
23.6915343201
23.6642200708
23.5861673703
23.3818481857
22.927973449
22.0462018908
20.5005228703
18.0096993096
14.2919374259
9.16056609186
2.66915808044
-4.75855070441
-12.3595914926
-19.3292586389
-25.2178319574
-30.0865574524
-34.3578849415
-38.493932525
-42.5632319427
-45.953360605
-47.6040797687
-46.6660399993
-43.0378032941
-37.3938129879
-30.7952289363
-24.2451822568
-18.4348482293
-13.7014022131
-10.1108259878
-7.56445957819
-5.89175621662
-4.68159295326
-3.19519095245
-2.19713436614
-1.53174236197
-1.04680978572
-0.674747641981
-0.383378128094
-0.157003115685
0.0141140350173
0.138734825151
0.222787709379
0.266113571216
0.269519381688
0.243784040116
0.203671588524
0.156876609612
0.101350869174
0.030928513373
27.6067080315
26.5689506037
26.6677504432
26.7793102654
26.82056713
26.6461523913
26.0275792467
24.6314298815
22.0100158419
17.6369223991
11.0450333675
2.12492866641
-8.47628695975
-19.2343056503
-28.4407844257
-35.3340482159
-40.3531051229
-44.6456675108
-49.594171463
-55.8111891032
-62.0575927391
-65.7292674702
-64.6963607948
-58.7017170215
-49.2706058643
-38.5965768857
-28.4923777805
-19.9899071516
-13.4370169561
-8.75712899344
-5.6741559141
-3.84632780137
-2.96106028693
-2.19976836553
-1.44084830141
-1.02607817005
-0.718668621512
-0.468388559876
-0.257983726492
-0.0863042181397
0.0466149857736
0.149609932974
0.233102802106
0.284305497686
0.28329086436
0.244094193722
0.196024776605
0.151541998457
0.103774391307
0.0340884406269
30.5482024519
29.5880936242
29.8726738531
30.272600731
30.7079251674
31.0247354916
30.9558387702
30.0651860333
27.6837206387
22.8771909578
14.5645086225
2.02372745497
-14.0317357362
-30.3143845824
-42.6445534097
-49.8936837239
-53.7397683298
-56.475650881
-61.7116791066
-72.2904507596
-85.5996726327
-94.7840325214
-94.3902401911
-84.0541014427
-67.6458653544
-49.9618196928
-34.2680350733
-21.8987708426
-12.9446115575
-6.94404082638
-3.2838316798
-1.36076017568
-0.671431806229
-0.724305279665
-0.590581477844
-0.535009914814
-0.454394726904
-0.341215012026
-0.210358102255
-0.0883377574154
0.00313661109972
0.074639798624
0.177341666183
0.282224967478
0.290495188166
0.231304824587
0.17636534797
0.139005937757
0.112887090302
0.0464439042371
33.4436756336
32.6340473627
33.1573231708
33.9388223018
34.9206076345
35.969683624
36.8203146697
36.9745503831
35.5416448511
31.0213880433
21.1624043276
3.37447620244
-20.3368534417
-51.1053789997
-69.4077042148
-74.1113679188
-73.9612439416
-70.130131648
-69.8599556107
-89.8973278302
-121.629046324
-145.501953909
-147.224319871
-127.407109229
-96.8997201039
-66.6173714966
-42.1037094524
-24.3284353624
-12.3370132448
-4.80949215054
-0.572200514128
1.34817014668
1.72532663949
0.934091156544
0.220685443387
-0.169190290818
-0.340259375151
-0.357844763088
-0.284757681599
-0.189129655297
-0.137799181785
-0.163176747036
-0.0541074269104
0.238403666326
0.275140624065
0.180767875377
0.13616688678
0.0898097716244
0.115121131761
0.0799658806035
36.1501923937
35.5616049389
36.3581276853
37.5883523596
39.2403542949
41.2453903358
43.4132479059
45.2998527923
45.9374887697
43.3069819061
33.4159276336
15.0704373161
-30.7105344298
-70.2731899172
-93.2111400478
-90.4738738074
-87.9561615562
-106.372898527
-61.0215993486
-104.091583612
-174.430685272
-232.819114028
-247.677257859
-207.033695808
-144.575766496
-90.748586353
-52.5923265891
-27.6743394331
-12.0715291076
-2.83492728158
1.98165917554
3.79190044842
3.69462813851
2.11007627939
0.682439181118
-0.131128501969
-0.507729819312
-0.598729009758
-0.53445770888
-0.410397301994
-0.336686035793
-0.673550177021
-1.07208422966
-0.198192669898
0.0618103186912
0.0314133630083
0.048590987896
0.105929799747
-0.10894389099
0.0602326398841
38.5143942442
38.2043913927
39.2773276665
40.9723222318
43.3445593523
46.4338816866
50.2169155228
54.4875303344
58.5532787185
60.451427886
59.6793905554
37.7123666845
-30.0696569592
-139.837224352
-111.073581021
-100.218558747
-81.6280752773
-120.698770272
-223.592485686
-315.682084485
-351.409107563
-318.725678519
-222.679633014
-123.800866422
-66.1327286784
-32.8596151227
-13.356964467
-2.16641459688
3.39990800669
5.02412085843
3.99660572927
1.78217964591
0.1402034062
-0.77139001989
-1.11815913964
-1.13187174369
-1.0273162038
-0.949446881821
-1.18955514362
-2.84788631359
-6.44030048641
-3.42418877719
-0.492381023302
-0.197430026899
-0.390821868614
-0.254298819515
-0.497033099751
-0.158555851343
40.3895089923
40.3917325332
41.7029615109
43.8064525932
46.8313761468
50.9481197867
56.3619087507
63.2697097098
71.6864492944
80.808470785
90.5908146188
61.2723771278
-19.854963099
-122.401833415
-144.180929237
-291.441952412
-406.02878947
-449.356057376
-406.641384039
-303.587965376
-163.515579756
-82.3490518712
-41.7744874714
-18.818646427
-5.21850925689
1.88649725446
3.23186767543
1.06536071836
-1.05893360964
-2.03441285631
-2.31594110994
-2.19402118764
-1.97935204908
-1.7899624974
-1.71566010884
-2.11876986606
-5.16959749944
-12.5758179165
-6.92442218558
-2.61447348427
-1.05124823626
-0.227251843982
-1.04829922829
0.274955761289
0.0232491295685
41.6551278739
41.9715996466
43.4401427383
45.8172490373
49.2901101092
54.1374039439
60.7689172829
69.7836175814
82.0299692394
98.5332828844
119.586268123
138.48960986
-196.538414211
-194.071295829
-331.051126715
-445.930954494
-492.619764154
-448.485507103
-341.186243082
-193.669656925
-99.6598669685
-57.390006956
-33.3280631585
-17.5871348281
-7.59723329916
-2.78006292424
-3.69301286647
-4.95655031926
-5.19968668628
-4.64144038336
-3.81928098238
-3.1665325855
-2.66832172075
-2.30756309938
-2.1706641742
-2.75212863399
-4.08741001076
-3.03062188788
-2.06169058571
-1.81035909174
-0.746019067291
-0.986108594865
-0.581334411893
-0.551689770514
42.2355446268
42.8349836412
44.3469650463
46.8008529219
50.4042751816
55.4762727471
62.5066532464
72.2601834223
85.953445872
105.506176188
129.17136386
158.14131146
-196.594420851
-222.68717632
-303.262091192
-397.164380158
-440.433295864
-411.011677008
-319.85848134
-191.003133944
-115.063668753
-82.2283658194
-64.561509121
-51.9709537718
-35.019150079
-19.4187114079
-12.757930089
-10.2957707484
-8.72751805939
-7.38467084824
-5.95234326845
-4.58305915234
-3.56427463709
-2.72149407534
-1.92041604992
-1.03040149996
-0.261539429878
-0.807841201003
-1.69250095332
-1.55233132583
-0.850126424677
-0.328944753606
-0.0348972605499
-0.0602381808333
42.1119612403
42.935186138
44.3640333493
46.6739705762
50.0468716518
54.7554767856
61.202295262
69.976675661
81.9155783515
98.0476573687
112.71071589
128.924581688
139.751425321
-206.479401693
-218.204540168
-224.922918483
-265.913310806
-305.824722851
-297.567247871
-234.982772533
-157.764316797
-124.78527438
-114.958694594
-115.779130601
-110.372913708
-84.5561338198
-47.9869102085
-26.2419188439
-17.5319560712
-12.9820386442
-10.0992039856
-8.01754293168
-6.12061888892
-4.48754924426
-3.19542690171
-2.05321931694
-1.02439778326
-0.355809125096
-0.449458321032
-0.870901185626
-0.903085196414
-0.640517273576
-0.380295044138
-0.210159486698
-0.12753441109
41.325143922
42.2959770226
43.5267031312
45.4947432046
48.3194702125
52.1614393281
57.2170459531
63.6804538964
71.5951733298
80.3314676318
86.8579227105
102.686922375
44.5013355366
-237.683358271
-253.377774407
-234.065996946
-116.291842783
-99.00221316
-115.273176942
-129.606013107
-117.915126912
-115.181724459
-126.499568781
-147.172913452
-166.95637231
-163.998590695
-128.138793428
-73.4272216303
-39.5022655017
-24.9620933861
-17.3681455563
-12.8284669974
-9.82146015701
-7.5486484858
-5.46979639422
-3.82304986339
-2.52252348363
-1.52927854391
-0.932003244076
-0.768960638364
-0.807488064947
-0.756074140617
-0.575598579558
-0.373217344308
-0.197413585076
-0.0689103054358
39.9680324409
41.0062145819
41.9556297862
43.4443880107
45.5144258258
48.1937449021
51.4524085135
55.0970787684
58.5171296511
60.0755655245
55.6921206488
36.2737993533
17.7742216433
-76.0896967387
-190.482220074
-250.212515574
-237.411450728
-263.697189671
-237.408155363
-92.3431117718
-7.82031565898
8.30397349145
11.6345528067
-4.55557153304
-39.9962723716
-78.8138862853
-121.910894142
-167.002947602
-195.108211776
-189.1710353
-144.532934736
-83.0521734061
-47.7268727485
-30.4775761056
-20.9497362901
-15.1823960545
-11.3972327337
-8.71672085791
-6.45462058671
-4.53967501489
-3.12651475603
-2.10822915034
-1.4583309047
-1.11415189782
-0.931939355158
-0.76809053691
-0.575324737891
-0.37867217913
-0.204124150527
-0.0643089253196
38.1705995436
39.2029609166
39.8297978306
40.7791530293
42.023098735
43.4794125561
44.9521751246
46.0155331069
45.7909697837
42.547604904
33.1053005872
12.4354130052
-24.590691782
-64.2593850952
-127.237064179
-164.735745084
-170.855234412
-167.188211651
-103.339456015
-46.228126345
11.9501397675
40.8893474219
39.2349520281
21.2120277554
-13.5282098305
-62.3280072153
-119.152789477
-168.882612631
-192.794366167
-179.178976394
-129.399723597
-78.3530827215
-49.5619762827
-33.0456514416
-23.1333289026
-16.8424466659
-12.6190092944
-9.63510212233
-7.29940593637
-5.24686795058
-3.72928879776
-2.64416613445
-1.90536237682
-1.42499050041
-1.10041867224
-0.843809446178
-0.61268709954
-0.402479848511
-0.219688283357
-0.067317491176
36.081250793
37.048774611
37.3524852035
37.7738930823
38.2369180849
38.5931561208
38.5686442141
37.6761875852
35.0829777957
29.4488785318
18.8484562466
1.13931950553
-24.5236748325
-54.9426052377
-82.4173272992
-99.5905985392
-102.869946138
-91.6543666281
-66.2545042433
-30.3537685734
6.13652848071
32.0061626998
34.7903553203
15.1748576263
-18.4016052771
-63.3438631488
-111.804797911
-149.084428894
-160.292066469
-138.24174704
-98.5737776682
-67.7630337759
-46.7605737459
-32.9648529231
-23.8619049557
-17.7049621863
-13.402546312
-10.2956137083
-7.92782843072
-5.86056041809
-4.25779912316
-3.10250304849
-2.27871489073
-1.69638311365
-1.27322058788
-0.944442501978
-0.671610541323
-0.438707286834
-0.240316376279
-0.0726913866545
33.8491676844
34.7094132101
34.7206208464
34.6766736736
34.4785018892
33.9556211467
32.8296061233
30.6650319967
26.8175953139
20.4164404137
10.4734349524
-3.71892950782
-21.7924663738
-41.474535729
-58.7959058107
-69.7187721919
-71.6571617945
-63.7932770415
-47.0197331587
-24.488333267
-1.80182781431
14.6178131787
19.3652502888
8.50746584751
-18.2179936161
-52.827902976
-85.841785542
-106.444602257
-106.880350562
-93.0263673458
-74.0711011814
-56.1694579485
-41.8417717602
-31.1820044365
-23.4558612693
-17.8598826059
-13.7557177413
-10.6921148075
-8.34107703315
-6.32642769824
-4.68001851138
-3.47246727902
-2.58288898212
-1.92690940058
-1.43388626157
-1.04992593135
-0.73923104937
-0.48108314042
-0.263696698449
-0.0790154901735
31.6107822061
32.336645759
32.1041228992
31.683733809
30.9743768203
29.8154747999
27.9677006349
25.0946854114
20.7592863469
14.4634558565
5.77881179308
-5.38821019273
-18.4329298146
-31.8095958933
-43.240586138
-50.4132121736
-51.7197905073
-46.6674377053
-36.0584446034
-22.1014781466
-8.20352855937
1.81116890386
4.71045759348
-1.26345330329
-15.6343158494
-35.1736295919
-54.25625315
-67.0505930049
-70.5480474647
-65.8687862757
-56.5904027853
-46.1436951201
-36.5693180468
-28.6289997911
-22.3572093264
-17.501577016
-13.7555200567
-10.8504403714
-8.56814646974
-6.63271524437
-4.98934158722
-3.75403681148
-2.82178734356
-2.11604492256
-1.57438095931
-1.14921952775
-0.806791732755
-0.524606513394
-0.287728206456
-0.0855696261064
29.4817322568
30.0581235661
29.6365112063
28.933550693
27.8597483754
26.2817893027
24.0161692739
20.8293569616
16.4549273504
10.6438516212
3.26504853416
-5.54329391843
-15.2165799808
-24.706337971
-32.6322420515
-37.6334620896
-38.7657658376
-35.7923631941
-29.3309845482
-20.8568182042
-12.4928122064
-6.55140514893
-4.94224737869
-8.60742660464
-17.1008395945
-28.4689141527
-39.6841601241
-47.7410194915
-50.9297939647
-49.3916569218
-44.5892043311
-38.28434863
-31.8231577763
-25.9529601477
-20.9547941797
-16.8419509015
-13.51010624
-10.8230267682
-8.64765333144
-6.79970278856
-5.19451444068
-3.95461952054
-3.00114480257
-2.26533180837
-1.6915424684
-1.23676803874
-0.869155165935
-0.565914014571
-0.31077806706
-0.0918695019994
27.5540580332
27.9738877353
27.4145290454
26.5133990273
25.1992349712
23.3716798391
20.9026892577
17.645235077
13.4554649065
8.23528365094
1.99846511646
-5.04917953862
-12.4462423038
-19.4774302829
-25.278844188
-29.0348585562
-30.2029379963
-28.6933006457
-24.9589475643
-19.9730590816
-15.0720606637
-11.6692816663
-10.8975315201
-13.2715638242
-18.4674268252
-25.3215100446
-32.1342514748
-37.2436966225
-39.6208640517
-39.1469443793
-36.4382310195
-32.4137549044
-27.9120026785
-23.5108538047
-19.521284624
-16.0595760624
-13.1277039751
-10.6731106517
-8.62270341729
-6.86189924641
-5.31359439006
-4.08708564153
-3.12945239481
-2.37895969519
-1.78581679044
-1.31080193258
-0.924033548726
-0.603247333564
-0.331902226082
-0.0976641966313
25.8974862504
26.1578018359
25.5032021972
24.4713911144
23.0108221698
21.0524985458
18.5152383146
15.3169510805
11.3947929094
6.73617593659
1.41884425542
-4.34911739354
-10.207434769
-15.6623789698
-20.1594038614
-23.2006275778
-24.4759765405
-23.9689107514
-22.0056209262
-19.228789178
-16.4881822931
-14.6587647602
-14.4226730768
-16.070793402
-19.3869610302
-23.6719621663
-27.9336581546
-31.1992992176
-32.8229524325
-32.6411558955
-30.9180629541
-28.1498348744
-24.8576410751
-21.4574011434
-18.2190732665
-15.2833582768
-12.6995580483
-10.4621454314
-8.5367230098
-6.85677179261
-5.36978111878
-4.16791363892
-3.21783637085
-2.46366034167
-1.86043528684
-1.37225119254
-0.9712680097
-0.63621139476
-0.350859649159
-0.102934879496
24.5635287729
24.6618731022
23.9430875609
22.8290265223
21.2862012318
19.2716465752
16.739878183
13.6539075972
10.0013096457
5.81519212626
1.19719042762
-3.6641701139
-8.48985118055
-12.9317632916
-16.6234145053
-19.2530423617
-20.6419110513
-20.8055020302
-19.9782486335
-18.589676579
-17.1893158706
-16.3299221444
-16.4328762128
-17.6704090335
-19.9025054866
-22.6989823806
-25.4551117473
-27.5701437926
-28.6208597011
-28.4586903492
-27.1984236268
-25.1237035522
-22.5694356125
-19.8327008273
-17.1306559372
-14.5964088168
-12.2947956225
-10.2433376124
-8.43034797875
-6.82011477645
-5.38855815753
-4.21577609837
-3.27955540048
-2.52822347047
-1.92063635542
-1.42387015902
-1.01215298901
-0.665405715445
-0.367970862977
-0.107844294898
23.5919199846
23.5215960788
22.7572591962
21.5916049534
20.005423188
17.9747582834
15.4788862778
12.5100112823
9.08536246035
5.26094210097
1.1441784657
-3.09904899684
-7.24849804392
-11.0493897136
-14.2486695296
-16.6425720539
-18.1248885759
-18.7225778151
-18.6069916039
-18.0735308884
-17.4892722915
-17.2160701052
-17.525290591
-18.5263472311
-20.1301752081
-22.062315057
-23.9329454842
-25.3459320259
-26.0058660311
-25.7866140471
-24.7396041413
-23.0441037973
-20.9318626335
-18.622774203
-16.2892951555
-14.0472566711
-11.9619877297
-10.0599517981
-8.34059094366
-6.78557026636
-5.39663110387
-4.25113206172
-3.32964356867
-2.5828843631
-1.97282902506
-1.46936921886
-1.04873365069
-0.691993113826
-0.383962819387
-0.112732980246
23.0228876024
22.7600436903
21.9564857674
20.7562985017
19.1472592815
17.116516352
14.6586053547
11.7829370693
8.52275963194
4.94454985534
1.15487474185
-2.69837474997
-6.43314858462
-9.85082416299
-12.7636316103
-15.0278316622
-16.5754624981
-17.4360309075
-17.7407651985
-17.7052032494
-17.5905456968
-17.6495673319
-18.0689878534
-18.9260735438
-20.1699104658
-21.6169257288
-22.993324601
-24.0113696183
-24.4407387295
-24.1636737008
-23.2056987672
-21.7036599089
-19.8414144996
-17.7944136342
-15.7017607654
-13.6610430833
-11.7324634978
-9.94522270184
-8.30242787365
-6.78844965243
-5.42411138179
-4.29729296112
-3.38450599459
-2.63833961725
-2.02345928741
-1.51238820713
-1.08300634265
-0.717193918265
-0.399869695944
-0.118294398038
22.8155917522
22.4750924925
21.6741254981
20.4968157795
18.9244657579
16.944928537
14.5598357573
11.7843722359
8.65417296867
5.23651270397
1.63218130446
-2.0251181474
-5.57576971171
-8.84928855774
-11.6865338615
-13.9657929582
-15.6273090934
-16.6898907189
-17.2539883971
-17.4882002751
-17.5992604075
-17.7895050552
-18.2094043097
-18.9224649997
-19.9469121305
-21.1548023301
-22.3198875982
-23.225171235
-23.6485451309
-23.4240137735
-22.5518338874
-21.1666873315
-19.4484648147
-17.5566795909
-15.6071404835
-13.6833107221
-11.8427904879
-10.1216662628
-8.53600133516
-7.06219012801
-5.67834838297
-4.50655383374
-3.56539942265
-2.79072573754
-2.14979595293
-1.61609614863
-1.16756308034
-0.785807525176
-0.455441722771
-0.162507385
-95.3227128206
-116.746982476
-132.94017838
-68.2562303637
-85.1661395952
-89.0833625053
-120.607560215
-102.751628279
-133.130071279
-112.245872693
-114.423174441
-97.9948325364
-121.214659437
-117.976594378
-96.2975623413
-109.616592027
-107.299661549
-102.845548469
-93.3952610559
-105.575381058
-110.431665444
-93.579152201
-104.628688809
-102.604155026
-88.4688282817
-89.6014138573
-110.624310131
-109.28888725
-53.4122531415
-12.7245818253
-78.6689163518
-24.9206553488
-52.8984484753
-9.6247160407
-88.3441270341
-235.874250425
-212.149332499
-247.166250348
-107.599526705
-111.300351927
-106.75301313
-94.1757063537
-106.456871174
-96.5360356909
-106.516191415
-82.8042691651
-108.39041718
-112.594831663
61.4515868447
115.911120759
89.6136319283
64.2270117939
54.3837278938
93.8084122892
109.68290563
25.7551914422
-1.82200725722
14.1308563076
-127.037661921
-140.70353409
-134.937573406
-144.37616063
-125.381511878
-157.481219218
-152.383801981
-130.440828654
-114.993286035
-139.242853619
-166.940306831
146.902638472
156.548934309
150.56707759
121.080236362
124.35194372
145.491670711
169.912306256
-197.041140748
-231.554973535
-203.334087261
-192.2885657
-173.114152211
-226.648270353
-211.566079338
173.76139175
152.433598676
178.454807716
155.89052629
169.700766299
156.108531441
161.18278053
-209.177136798
-194.860994443
-210.539167801
-199.358908249
-213.017434679
-190.304322294
-210.530393238
131.946052736
88.2019531084
84.7075046144
144.850672211
154.043010434
112.356600145
91.4033920371
99.7042772004
143.426307445
87.2736296503
-205.841072356
-233.411145096
-199.017759557
-230.16897599
-219.750329838
-237.326971825
-223.353084396
-192.530511155
-211.763522471
-229.587559837
-204.559700284
2.70456202567
17.8630862037
-24.0504563963
65.8929153614
51.9999572502
4.90656049478
-16.6015578375
-117.888413924
-206.537266357
-87.3433966579
-240.434826784
-239.874281647
-239.124627261
-242.667527806
-236.125256889
-238.285411094
-235.085831958
-242.456324994
-237.747707324
-234.440519637
-237.472120215
-224.124771415
-163.085147989
-49.5453794471
-131.297321966
-86.4464404924
-163.041553361
-96.8182472793
-108.042852542
-202.371787402
-133.055543798
-155.212134243
-160.220643761
-201.712618057
-161.940618281
-147.899786696
-258.464573377
-175.53384562
-175.917898967
-223.756556557
-249.432631524
-199.468217165
-174.403532796
-209.824597406
-182.992579453
-192.3729226
-249.020642929
-236.924066387
-188.735224032
-167.53146303
11.6047287542
12.1993302821
12.3479211856
13.2574088544
13.5853933267
13.361746997
12.8033933463
11.9590176543
10.7489709774
9.17974148833
7.45781233971
5.48908003965
3.17140063135
0.656414242425
-1.90745954593
-4.46535128273
-6.93563685571
-9.19207995388
-11.1772391395
-12.829171121
-14.1159366912
-15.0233594504
-15.5512915376
-15.7035666456
-15.4970820197
-14.9490949828
-14.1000192996
-13.0130110617
-11.7494522611
-10.3638176015
-8.93702767983
-7.53524548731
-6.21110487471
-5.00323614807
-3.93441806549
-3.01311740212
-2.23731594245
-1.59820365163
-1.08343228634
-0.679033018266
-0.370327101049
-0.142948203295
0.016056931495
0.11814928342
0.173574582556
0.191006763344
0.177489847902
0.13875210599
0.0792676135186
-0.000151907832976
11.9648222367
12.3619727008
12.6630249521
13.1605464055
13.4442085297
13.3035990689
12.7992114581
11.9835631664
10.8199247451
9.31163751482
7.55110942501
5.5437248285
3.24432421819
0.730147308817
-1.86662614116
-4.45735340466
-6.95617761401
-9.25526370501
-11.2793238602
-12.9592490453
-14.2657049096
-15.1855718315
-15.7474479345
-15.9362130609
-15.7570936858
-15.2277461214
-14.3847093103
-13.2823474332
-11.9897241401
-10.5748141823
-9.11432312528
-7.68032479362
-6.32861792171
-5.09831209211
-4.01170910176
-3.07652795765
-2.28980832126
-1.64191267165
-1.11973083854
-0.708763781166
-0.394253934926
-0.161948223937
0.00126373790596
0.107093213537
0.165844794342
0.186311744325
0.175722096148
0.139883077689
0.0833370229311
0.010768090106
13.1415859782
13.2977028901
13.4813060648
13.6625618093
13.7008367755
13.4619938452
12.9051916413
12.0191818808
10.7846662819
9.20233717934
7.30385039657
5.1147173199
2.66078834117
0.0142668234295
-2.71678119059
-5.42629533286
-8.01474977115
-10.3847937316
-12.4521828926
-14.1486504784
-15.4269053055
-16.2655529401
-16.6727229088
-16.6817288073
-16.3606605403
-15.7745428468
-14.8461120123
-13.6323387722
-12.2258555961
-10.700188318
-9.1461183911
-7.64030450169
-6.24160702615
-4.9874331649
-3.89514158728
-2.96646774191
-2.19303694207
-1.56114667125
-1.05504021524
-0.658753331327
-0.356981961047
-0.135463087941
0.0188089859611
0.117470384063
0.170724668356
0.187266131998
0.174228059582
0.137271273459
0.0808470808419
0.00999620546519
14.6140049858
14.6477113361
14.6793923634
14.6575289762
14.4977023462
14.1094367093
13.4263983564
12.4019389019
11.002041618
9.21367801376
7.05147909229
4.55389748293
1.78477360841
-1.16067840737
-4.16598159115
-7.11417045259
-9.89910072309
-12.4261335346
-14.6098305543
-16.3724199204
-17.6486403657
-18.3979944069
-18.6183415776
-18.3520509262
-17.6795048785
-16.7015648692
-15.5284209951
-14.2305696351
-12.6358797374
-10.9115487893
-9.20569013661
-7.58015114193
-6.10460492664
-4.81211960582
-3.71144263701
-2.79373680465
-2.04139370488
-1.43415275681
-0.952329549758
-0.578002952031
-0.295188593968
-0.0896440330545
0.0513702685684
0.139240841246
0.184024557083
0.194335161179
0.177178738114
0.137946974265
0.0807134717651
0.0100504338743
16.3755038664
16.3419772853
16.2688895386
16.1146334488
15.8127544906
15.2835723026
14.4473902283
13.2314607881
11.5771876944
9.45263774626
6.86597578417
3.87360628631
0.580333859442
-2.87268321091
-6.33354453143
-9.66734065635
-12.7689831198
-15.5557434795
-17.9480179551
-19.8534286586
-21.1704195474
-21.815842297
-21.7620383081
-21.060603668
-19.8378292998
-18.264408899
-16.5156812685
-14.7373601563
-13.0416745883
-11.2537655348
-9.27109584253
-7.47641638059
-5.89441362828
-4.55506471228
-3.45091885967
-2.55546816398
-1.83682132275
-1.26564843089
-0.81750444462
-0.47252152791
-0.214343354447
-0.0291397458894
0.0951446490162
0.16931663747
0.203175935598
0.205338545226
0.182758719343
0.140447378897
0.0817739003745
0.0104617044374
18.4281624223
18.3651215306
18.242502286
18.0231298888
17.6424638519
17.0140738317
16.0370284646
14.6052905835
12.6227480888
10.0264159278
6.81470359868
3.07058011459
-1.03555933599
-5.27629136126
-9.42595764598
-13.3176843448
-16.8634096503
-20.0246815238
-22.7524412984
-24.9349948946
-26.3954707313
-26.95373544
-26.5193746652
-25.1543840398
-23.0684731454
-20.5559661661
-17.9137010421
-15.3793263587
-13.1033683728
-11.1592110934
-9.34581136747
-7.30055419441
-5.57546573927
-4.19129173303
-3.10133511011
-2.24982540223
-1.584122628
-1.06381061113
-0.659889646572
-0.351423598788
-0.122559778633
0.03937143632
0.144970608536
0.20376336226
0.225021553795
0.217621541075
0.188823762905
0.14324149286
0.0831271213801
0.0109642473372
20.765116797
20.7059912461
20.5902536176
20.3786939924
19.9988717221
19.3452888144
18.282002738
16.6509863636
14.2923305456
11.0822960209
6.98887943343
2.12847939395
-3.21371219611
-8.64152725236
-13.781076009
-18.411764277
-22.504804066
-26.1473434606
-29.3919368009
-32.1108413377
-33.9649677942
-34.5464419212
-33.6113978105
-31.2351681507
-27.7937839084
-23.8151436045
-19.8068019749
-16.1428838055
-13.03290936
-10.544020781
-8.65026962803
-6.99502306363