/*--------------------------------*- C++ -*----------------------------------*\
| =========                 |                                                 |
| \\      /  F ield         | OpenFOAM: The Open Source CFD Toolbox           |
|  \\    /   O peration     | Version:  2506                                  |
|   \\  /    A nd           | Website:  www.openfoam.com                      |
|    \\/     M anipulation  |                                                 |
\*---------------------------------------------------------------------------*/
FoamFile
{
    version     2.0;
    format      ascii;
    arch        "LSB;label=32;scalar=64";
    class       surfaceScalarField;
    location    "2";
    object      phi;
}
// * * * * * * * * * * * * * * * * * * * * * * * * * * * * * * * * * * * * * //

dimensions      [0 3 -1 0 0 0 0];

oriented        oriented;

internalField   nonuniform List<scalar> 
217203
(
0.0105292243369
-0.802078157195
0.800205949053
-0.00865701614414
0.4739100457
-0.471879657684
0.0120549854553
-0.0140853734307
0.487613817743
-0.485715141202
0.0101772041404
-0.0120758806461
0.521430568321
-0.516011976634
0.0254719664134
-0.0308905580681
0.57331588996
-0.566349155331
0.0250374881144
-0.0320042227161
0.631643579317
-0.624088271641
0.0207049057512
-0.0282602134031
0.689280739184
-0.682222564959
0.0182567096754
-0.0253148838734
0.748570692878
-0.741010802059
0.0182911440492
-0.0258510348411
0.808938782639
-0.801367399211
0.0172142445612
-0.0247856279673
0.869769105734
-0.862147168455
0.0150878658725
-0.022709803137
0.931298045905
-0.923503653026
0.0176235524688
-0.0254179453329
0.99414654827
-0.986411620564
0.0200640476131
-0.0277989753044
1.05144254921
-1.04482334308
0.018234838901
-0.0248540450143
1.0993109026
-1.09374021365
0.0162521716154
-0.0218228605478
1.14138034826
-1.13638596128
0.0163629289279
-0.0213573158959
1.17888995222
-1.17438224808
0.0157499229452
-0.0202576270626
1.21562350677
-1.21087897028
0.0138841180812
-0.0186286545656
1.25727378923
-1.25168062296
0.0117597551296
-0.0173529213997
1.30418863481
-1.29831288991
0.00901893126535
-0.0148946761664
1.34742254148
-1.3425710252
0.00614766309453
-0.010999179376
1.37825282248
-1.37520239732
0.00372368726538
-0.00677411242583
1.39575600839
-1.39412318198
0.00182157743639
-0.00345440385007
1.4054031741
-1.40443793285
0.000343019194686
-0.00130826043983
1.41147182995
-1.41085129301
-0.000684441292543
6.3904369612e-05
1.41531986071
-1.41491477574
-0.00117520666941
0.000770121711431
1.41848400939
-1.41804596229
-0.00118976225982
0.000751715177121
1.4230425927
-1.42233801301
-0.000890292310831
0.000185712628133
1.43039524294
-1.42928369859
-0.000536859372401
-0.000574684971428
1.44172226719
-1.44004468315
-0.000331506508539
-0.00134607751615
1.45710448299
-1.45502695871
0.000559121816237
-0.00263664608163
1.47524365429
-1.4728132262
0.0016060147347
-0.00403644281242
1.49599767759
-1.49328909155
0.00259689035293
-0.00530547637259
1.51856000792
-1.51566198696
0.00349668602998
-0.00639470697643
1.54223606131
-1.53923956189
0.00423385694114
-0.00723035634565
1.56633820008
-1.56332116028
0.00478015875656
-0.00779719853695
1.5903464329
-1.58736229481
0.00514802360137
-0.00813216168557
1.61395006074
-1.61102831655
0.00535336097498
-0.00827510515546
1.63696726514
-1.63412633242
0.00541642587476
-0.00825735858468
1.65928059997
-1.65653299061
0.00535153027094
-0.00809913961685
1.68079276962
-1.67815098604
0.0051778853613
-0.00781966893674
1.70139997497
-1.698876905
0.00493415026705
-0.00745722022434
1.72100683123
-1.71861348359
0.00465733981413
-0.00705068744566
1.73953253127
-1.73727849144
0.00435326177498
-0.00660730159672
1.75690222651
-1.7547966498
0.00401991655747
-0.0061254932546
1.77305128611
-1.77110089055
0.00367423824293
-0.00562463379772
1.7879471732
-1.78615388216
0.00332841204117
-0.00512170308154
1.80159162653
-1.79995397288
0.00298407210068
-0.00462172575166
1.81400263877
-1.81251788313
0.00265266822465
-0.00413742387012
1.825207675
-1.82387164657
0.00234702257685
-0.00368305100374
1.83525933323
-1.83406294783
0.0020722362196
-0.00326862162024
0.00553846685807
-1.17928981349
1.17923726503
-0.00548591834173
-1.07377125321
-0.0231769076438
0.0227982229678
1.07414993792
-1.08004659457
-0.0371295178083
0.0360020839475
1.08117402846
-1.08986571135
-0.0507973908347
0.0493342401435
1.09132886207
-1.10489442061
-0.0591227635357
0.0565880010291
1.10742918315
-1.12946220002
-0.0644160221984
0.0606786054761
1.13319961677
-1.16272343872
-0.0693761359309
0.0647475191484
1.16735205552
-1.2024010959
-0.0739002005149
0.0685129160784
1.20778838036
-1.24803373337
-0.0774650734867
0.0713637685629
1.25413503832
-1.29884241168
-0.0806152560114
0.0740257500475
1.30543191766
-1.3519633027
-0.0831657284271
0.0765073155721
1.35862171557
-1.40527164336
-0.0828075234386
0.0761215117862
1.41195765503
-1.45889396239
-0.0789803089971
0.0722958847199
1.46557838668
-1.51139519073
-0.0729629603558
0.0666429444172
1.51771520669
-1.55970843145
-0.0647635166039
0.0591237162033
1.56534823186
-1.60202267881
-0.0538172414427
0.0490110411123
1.60682887916
-1.6371481988
-0.0404670194257
0.0366614322544
1.64095378598
-1.66329787032
-0.0254519677671
0.0229161454269
1.66583369268
-1.67890887041
-0.00906617322653
0.00787541263055
1.68009963101
-1.6832155257
0.00780822280704
-0.00742781608992
1.68283511898
-1.67559520492
0.0243723974088
-0.0224262222452
1.67364902975
-1.62931189705
0.0361675294342
-0.022729079841
1.61587344746
-1.48734816774
0.0189485858441
-0.00128461778811
1.46968419968
-1.39452474415
-0.00472496072817
0.00849817073123
1.39075153415
-1.39731081968
-0.00777958983158
0.00426578627539
1.40082462324
-1.42088213377
-0.00310994650784
0.00179721877873
1.4221948615
-1.42446179486
-0.00622168357011
0.00600179977674
1.42468167866
-1.43074271293
-0.011857690324
0.0104238389662
1.43217656429
-1.44395414282
-0.0167051573992
0.0148381023831
1.44582119784
-1.46048330836
-0.0217546341999
0.0194151997509
1.46282274282
-1.48069616984
-0.0262070230145
0.0234627494801
1.48344044338
-1.50376703329
-0.0297921480085
0.0267462876631
1.50681289365
-1.52889202129
-0.0323679613994
0.0291244742779
1.53213550842
-1.55524753784
-0.0339359984266
0.0305925924754
1.55859094381
-1.58210310151
-0.03460537696
0.0312444838039
1.58546399468
-1.60886144289
-0.0345416323409
0.0312275978767
1.61217547737
-1.63507170856
-0.0339157737338
0.030695080596
1.63829240171
-1.66041407215
-0.0328685977178
0.029773703025
1.66350896685
-1.68466650119
-0.0315030974586
0.0285563521593
1.6876132465
-1.70767434553
-0.0298942001786
0.0271118654345
1.71045668028
-1.72931963364
-0.0281129901842
0.0255078726513
1.73192475118
-1.74951611523
-0.0262275227353
0.0238074125571
1.75193622542
-1.76822201663
-0.0242888802941
0.0220557182712
1.77045517866
-1.78544112503
-0.0223445220539
0.020294911547
1.78749073555
-1.8012161544
-0.0204474292506
0.0185736274562
1.8030899562
-1.81562382043
-0.0186412863079
0.016931460221
1.81733364652
-1.82876784697
-0.0169492700103
0.0153895889757
1.83032752801
-1.8407576752
-0.0153775664145
0.0139548500609
1.84218039155
-1.85169480567
-0.0139321274882
0.0126342600883
1.85299267308
-1.86167113164
-0.0126162932459
0.011433050322
1.86285437456
0.00560939305215
-1.37353592906
1.37358756933
-0.00566103327014
-1.3119823808
-0.025704623688
0.025391998039
1.31229500648
-1.31593548052
-0.0438157947099
0.0430779585167
1.31667331675
-1.32353240834
-0.0612400500145
0.0599757487067
1.32479670968
-1.33623070396
-0.0767236829606
0.0746751695053
1.33827921744
-1.35584119458
-0.0902963311876
0.0873165375724
1.35882098823
-1.38286678186
-0.102533426582
0.0986549778509
1.38674523061
-1.41681987039
-0.113496021823
0.108792727733
1.4215231645
-1.45709154835
-0.122864680422
0.117425515833
1.46253071296
-1.50273358518
-0.130240760479
0.124230991433
1.50874335424
-1.55219384862
-0.13484173152
0.128472093004
1.55856348714
-1.60393697555
-0.135501760341
0.128937021694
1.61050171421
-1.6566253744
-0.131551161675
0.124985029736
1.66319150635
-1.70838472039
-0.123016244942
0.116731681017
1.71466928433
-1.75686044874
-0.110014372204
0.104296552572
1.76257826839
-1.80000884251
-0.0926931524004
0.0877611409096
1.80494085401
-1.83617956476
-0.0715008659143
0.0675506137436
1.84012981694
-1.86387550512
-0.0471342297381
0.0443346132618
1.8666751216
-1.88189636875
-0.0203600346584
0.0188382801468
1.88341812327
-1.88929828079
0.00778490452723
-0.00792130964268
1.8894346859
-1.88536587921
0.0359258687893
-0.0346224019014
1.88406241234
-1.86994437568
0.0624062520353
-0.0596848652939
1.86722298894
-1.84340741804
0.0853560993534
-0.081289630171
1.83934094886
-1.80737827331
0.102994607954
-0.0981143569186
1.80249802227
-1.75088209676
0.11088886698
-0.0969513658268
1.73694459561
-1.56999595804
0.0613258007697
-0.0327579771122
1.54142813438
-1.40484209739
-0.0146350843871
0.0216235165091
1.39785366527
-1.40981465218
-0.0298950041026
0.0243168215961
1.4153928347
-1.44091461924
-0.0298380743539
0.0283355567154
1.44241713688
-1.45358440778
-0.0411990246645
0.0388150679959
1.45596836446
-1.47550701865
-0.0487581444586
0.0458313797472
1.47843378337
-1.4998418027
-0.0548898560291
0.0516687789399
1.50306287981
-1.52640452608
-0.0590224351787
0.0556060373974
1.52982092387
-1.55406874675
-0.0612997463775
0.0578065440739
1.55756194906
-1.58201515911
-0.0619845381749
0.0585049453348
1.58549475196
-1.60961842184
-0.0614286616659
0.0580249452882
1.61302213823
-1.63646058431
-0.0599604181831
0.056673340516
1.63974766199
-1.66226964295
-0.0578345831377
0.0546907026232
1.66541352348
-1.6868659405
-0.055227834748
0.0522452363983
1.68984853886
-1.71012234828
-0.0522589655061
0.0494512970481
1.71293001674
-1.73193853209
-0.0490225382372
0.0464010281743
1.73456004216
-1.75223497938
-0.0456195555973
0.0431921149483
1.75466242003
-1.77096547358
-0.0421451430348
0.0399144459245
1.7731961707
-1.78813157151
-0.0386946161119
0.0366567007215
1.7901694869
-1.80378646471
-0.0353619634801
0.0335069662478
1.80564146195
-1.81802673077
-0.0322261421761
0.0305393918807
1.81971348108
-1.8309802507
-0.029327572786
0.0277920410992
1.83251578239
-1.84278199664
-0.0266674553869
0.0252669331745
1.84418251886
-1.8535541751
-0.0242381070865
0.0229586906092
1.85483359158
-1.8633952729
-0.0220170848609
0.0208490308976
1.86456332686
0.00611566787283
-1.5055124263
1.50558590357
-0.00618914509996
-1.4624239223
-0.0284089968538
0.0280503127955
1.46278260638
-1.46654906871
-0.0496795049
0.048936801403
1.46729177224
-1.47420692477
-0.0713181078435
0.0700539129156
1.47547111973
-1.48660229645
-0.0925579281397
0.0906103971215
1.4885498275
-1.50494158437
-0.112943309626
0.110188054332
1.50769683969
-1.52997644439
-0.132176152661
0.128560017343
1.53359257973
-1.5619034879
-0.14985401441
0.14538429192
1.56637321041
-1.60049449575
-0.16534757592
0.1600813817
1.60576068999
-1.64510092355
-0.177777670473
0.171827813798
1.65105078026
-1.69464324787
-0.186008880522
0.179536194719
1.70111593368
-1.74770137629
-0.188809807512
0.182013337087
1.75449784672
-1.80253893967
-0.185215458766
0.178338921652
1.8094154768
-1.85702560466
-0.174760478018
0.168096973425
1.86368910927
-1.9087268651
-0.157444368614
0.151304500206
1.91486673352
-1.95521854306
-0.133748305537
0.128417673708
1.96054917489
-1.99438629497
-0.104485719732
0.100197096278
1.99867491843
-2.0245486606
-0.0706288001046
0.0675661419823
2.02761131873
-2.04434252804
-0.0332603626583
0.0315753207596
2.04602756995
-2.05269381963
0.00629076434915
-0.00648907227287
2.05289212756
-2.0488932845
0.0463644727702
-0.0450123168088
2.04754112855
-2.03257703954
0.0847518902649
-0.0818338983047
2.02965904758
-2.00399819184
0.118767556006
-0.114387963511
1.99961859935
-1.96446010361
0.145778810481
-0.140166187898
1.95884748104
-1.9160699455
0.163519169213
-0.156971292354
1.90952206865
-1.86160770046
0.170505073224
-0.163591452699
1.85469407994
-1.79954448358
0.164733837426
-0.152439835994
1.78725048215
-1.6229994541
0.0843082501823
-0.0522648271662
1.5909560311
-1.4222703825
-0.0464178909832
0.0550507216768
1.41363755182
-1.43358226567
-0.0685104801896
0.061620887425
1.44047185845
-1.46955170284
-0.0713565331005
0.0689733030872
1.47193493287
-1.49335615507
-0.082308017082
0.0786272111674
1.49703696101
-1.52284780093
-0.0875365617955
0.0838543393344
1.5265300234
-1.55262301624
-0.0902666376942
0.0865297973427
1.5563598566
-1.58228673127
-0.0905965850968
0.0869362156251
1.58594710075
-1.61114870142
-0.0892172866129
0.0856842877346
1.61468170031
-1.63888441083
-0.0866565195735
0.083277614027
1.64226331639
-1.66533579045
-0.0832790204549
0.0800677015328
1.66854710939
-1.69040974877
-0.0793080504996
0.076274756275
1.69344304301
-1.71402379388
-0.0748807294111
0.0720356690937
1.71686885421
-1.73609579344
-0.0701004669321
0.0674540629511
1.73874219744
-1.75654334493
-0.0650849634355
0.0626467869761
1.7589815214
-1.77530454466
-0.0599694091762
0.0577439672134
1.77752998663
-1.79237161594
-0.0549096687565
0.0528930258913
1.79438825881
-1.80780842005
-0.0500605456966
0.0482395844902
1.80962938126
-1.82174801838
-0.045549607542
0.0439037473817
1.82339387854
-1.83436995101
-0.041439864447
0.0399452863403
1.83586452912
-1.84585958803
-0.0377199444539
0.0363551933922
1.8472243391
-1.85637252812
-0.0343537312766
0.0331021454521
1.85762411395
-1.86601859912
-0.031273055401
0.0301252456878
1.86716640883
0.00673248506005
-1.60557810173
1.60565783361
-0.00681221686702
-1.57264241007
-0.0314253846533
0.0310381515625
1.57302964321
-1.57698634114
-0.0557441041588
0.0549773380645
1.57775310728
-1.58479600713
-0.0814815217425
0.0802083573088
1.5860691716
-1.59713653407
-0.107983793024
0.106066771189
1.59905355594
-1.61508789748
-0.134624237578
0.131936231183
1.61777590391
-1.63955795116
-0.160724201231
0.157171993188
1.64311015925
-1.67114039594
-0.185460915227
0.180996676021
1.67560463518
-1.71003766847
-0.207780089641
0.202409555159
1.71540820298
-1.75598874387
-0.226326437511
0.220119019026
1.76219616238
-1.80818742401
-0.239476393389
0.232575197783
1.81508861962
-1.86521710824
-0.245506926137
0.238134240776
1.87258979361
-1.92503886984
-0.242976207159
0.235427063283
1.93258801373
-1.98509688047
-0.231041638797
0.223661326557
1.99247719272
-2.04256922067
-0.209589469985
0.202732547113
2.04942614355
-2.09469608289
-0.179281255171
0.173274243577
2.10070309449
-2.13901341373
-0.141304794457
0.136427796943
2.14389041125
-2.17346384176
-0.0970821444631
0.0935606637191
2.17698532251
-2.19638440066
-0.0479749446664
0.0459978597016
2.19836148563
-2.20631545061
0.00446657280646
-0.00472546288688
2.2065743407
-2.20199774099
0.0581570538832
-0.0565720220965
2.20041270921
-2.18275219025
0.110292247747
-0.10683845696
2.17929839947
-2.14880410393
0.157320475129
-0.152094971081
2.14357859988
-2.10148096579
0.195304321866
-0.18857529176
2.0947519357
-2.04361485686
0.220950729286
-0.213167843846
2.03583197143
-1.97910979982
0.232315974034
-0.223992723949
1.97078654975
-1.91204362698
0.228898055499
-0.220527916271
1.90367348776
-1.84701616206
0.212165876361
-0.204342907473
1.83919319318
-1.75639738493
0.163235981015
-0.142069025384
1.73523042932
-1.52898852471
-0.00920862184946
0.0363188093661
1.50187833721
-1.43409828571
-0.116392822231
0.111019472421
1.43947163555
-1.48825635141
-0.110208737155
0.105844691598
1.49262039699
-1.5179038026
-0.119505560851
0.115385257008
1.52202410646
-1.5514617638
-0.121520443845
0.117463023988
1.55551918368
-1.58336930786
-0.120908313119
0.117010661592
1.58726695941
-1.61380261666
-0.118163298076
0.114477250128
1.61748866463
-1.64257668685
-0.114156006581
0.110672484537
1.64606020891
-1.66976012233
-0.109315569784
0.106026474741
1.67304921738
-1.6953989669
-0.103849141749
0.100753275781
1.69849483289
-1.71946920138
-0.0978571627437
0.0949622945712
1.72236406957
-1.74189134918
-0.0914231111807
0.0887412415891
1.74457321879
-1.76256088115
-0.0846604173001
0.0822054748258
1.76501582364
-1.78137483955
-0.0777414181031
0.0755233156242
1.78359294204
-1.79829104137
-0.0709018440858
0.0689187057364
1.80027417973
-1.81337853701
-0.0643966649586
0.0626309111986
1.81514429078
-1.82683033839
-0.0584396051367
0.0568596669256
1.8284102766
-1.83892492874
-0.0531273300011
0.0516964143177
1.84035584443
-1.84994218436
-0.0484158207075
0.0471028929957
1.85125511207
-1.86009449924
-0.0442072174982
0.0429920225117
1.86130969423
-1.86949705079
-0.0403497065903
0.0392255677769
1.8706211896
0.00736478674222
-1.68616069371
1.68623730371
-0.00744139667859
-1.65954980383
-0.0345271249053
0.0341440372713
1.65993289151
-1.66382920211
-0.0618440883033
0.0610916970823
1.66458159337
-1.67146673163
-0.0915587048276
0.0903171879306
1.67270824856
-1.6834973613
-0.123134225696
0.1212635648
1.68536802224
-1.70106394442
-0.155931111738
0.153287573907
1.7037074823
-1.72529056503
-0.189107645539
0.185557660017
1.72884055059
-1.75716800392
-0.221563073391
0.21699885702
1.76173222032
-1.7974026738
-0.251830136587
0.246193348809
1.80303946161
-1.84621975582
-0.277993620971
0.271300866361
1.85291251046
-1.90313661028
-0.297700744089
0.290074904424
1.91076244995
-1.96673310473
-0.308388180158
0.300080574174
1.97504071072
-2.0345489405
-0.307824393271
0.299211718711
2.04316161507
-2.10327212481
-0.294676939278
0.286209130595
2.1117399335
-2.16928003139
-0.268828398177
0.26094730749
2.17716112208
-2.22926747823
-0.231339207817
0.22441156174
2.23619512431
-2.28059469458
-0.183890493053
0.178199969437
2.2862852182
-2.32118617854
-0.128293003052
0.124073668623
2.32540551297
-2.34915266571
-0.0660305572506
0.0635272798458
2.35165594312
-2.36241220081
0.00139935714465
-0.00190668111182
2.36291952478
-2.35867220856
0.0717136814031
-0.0699448662273
2.35690339339
-2.33604392961
0.14115342751
-0.136957238721
2.33184774083
-2.2941896861
0.204576998253
-0.198067086509
2.28767977437
-2.23502794268
0.256371211446
-0.247937126026
2.22659385728
-2.16247640165
0.29154882125
-0.281803936795
2.15273151722
-2.08208788095
0.307220816372
-0.296933930015
2.07180099461
-1.99999259271
0.303187078084
-0.293084367301
1.98988988195
-1.92148918046
0.281214886174
-0.271870034927
1.91214432923
-1.85083670597
0.244717143047
-0.236698941391
1.84281850433
-1.78043548272
0.188403928369
-0.174495224891
1.76652677926
-1.5968452876
0.00682922691293
0.0222607158257
1.56775534488
-1.46030304101
-0.161472632889
0.159380555878
1.46239511806
-1.51492771101
-0.153903024093
0.148018565831
1.52081216929
-1.55094328136
-0.156415110086
0.151998776054
1.55535961541
-1.58612953647
-0.15312857479
0.148993562978
1.59026454831
-1.61808899856
-0.148329675496
0.144495934769
1.62192273931
-1.64781720781
-0.142465953357
0.138887885962
1.65139527522
-1.67568497727
-0.13598047764
0.132614033779
1.67905142115
-1.70191895399
-0.128931647313
0.125764254733
1.70508634659
-1.72654357204
-0.121298230865
0.11833798835
1.72950381457
-1.74944594181
-0.113097201638
0.110363777563
1.7521793659
-1.77045483963
-0.10441834392
0.101934654306
1.77293852925
-1.78938577592
-0.0954575296632
0.0932452631756
1.79159804242
-1.80610689412
-0.0865595429422
0.0846252321985
1.80804120488
-1.82066124703
-0.0781568604701
0.0764782127493
1.82233989476
-1.83333592983
-0.0706377105904
0.0691629534149
1.83481068701
-1.84460124012
-0.0641637085339
0.0628299767043
1.84593497196
-1.85492476582
-0.0586125312295
0.0573707473793
1.85616654968
-1.86461393249
-0.053742043389
0.0525685799694
1.86578739591
-1.87375976191
-0.0492390130392
0.0481369989039
1.87486177605
0.00793855612232
-1.75358050804
1.75364477019
-0.00800281820404
-1.73114654084
-0.0374330984697
0.0370912732911
1.73148836604
-1.73499241334
-0.0675858144565
0.0669045846727
1.73567364316
-1.74196172507
-0.101100768421
0.0999577916594
1.74310470187
-1.75313270378
-0.137638373034
0.135883318148
1.7548877587
-1.76978494248
-0.176663832285
0.174125592734
1.77232318207
-1.79335412609
-0.217369585717
0.213859382107
1.79686432973
-1.82534054835
-0.258533138335
0.253869820906
1.83000386581
-1.86711576129
-0.298367217399
0.292398689628
1.87308428911
-1.91964929267
-0.334320796069
0.326977318817
1.92699276997
-1.98303407861
-0.363013803814
0.354372711342
1.99167517109
-2.05595544184
-0.38052316744
0.37087103808
2.06560757121
-2.13532039174
-0.383218319827
0.373067099362
2.14547161223
-2.21648557054
-0.368953128229
0.358947116181
2.2264915826
-2.29429584504
-0.337775844837
0.328528531439
2.30354315845
-2.36447943225
-0.291827862375
0.283749406644
2.37255788799
-2.42440704932
-0.233829029931
0.227152834556
2.43108324469
-2.4726477041
-0.166153821428
0.161009631995
2.47779189353
-2.50787117964
-0.0897753474241
0.0864063131148
2.51124021396
-2.52740504702
-0.00521988575568
0.0040830944312
2.52854183834
-2.52697149878
0.0857483788999
-0.0840521080138
2.52527522791
-2.50205814068
0.178250273002
-0.173267034414
2.4970749021
-2.45051755742
0.26417347098
-0.255921176923
2.44226526338
-2.37459170844
0.334392944652
-0.323479836402
2.36367860022
-2.28075244371
0.381532004458
-0.368965152397
2.26818559168
-2.17759082276
0.401550080732
-0.38845168999
2.16449243205
-2.07401179176
0.394601331839
-0.382030771021
2.06144123098
-1.97759450067
0.364273138849
-0.353004803323
1.96632616517
-1.89339837065
0.315682498078
-0.30617876134
1.88389463393
-1.82440407579
0.254685098687
-0.247276412514
1.81699538964
-1.76242477279
0.175732383837
-0.163921606828
1.7506139958
-1.60480278199
-0.0371087962706
0.0620204418719
1.57989113643
-1.49726628181
-0.213170970581
0.208978683848
1.50145856857
-1.55564179512
-0.192230343478
0.186808187662
1.56106395098
-1.59125226293
-0.18777552799
0.183391430414
1.59563636054
-1.62466493603
-0.179328564457
0.17544263602
1.6285508645
-1.65483031011
-0.171365864832
0.167733973093
1.65846220187
-1.68315995069
-0.163220631638
0.159787648585
1.68659293376
-1.70998286874
-0.154629512374
0.15138051451
1.71323186662
-1.73529037368
-0.145357527268
0.14230923476
1.7383386662
-1.75888021535
-0.135301837994
0.132488390464
1.76169366289
-1.780452024
-0.124508688357
0.121970562829
1.78299014954
-1.79966708336
-0.113169553374
0.110951145656
1.80188549109
-1.81619384062
-0.101746832347
0.0998792989636
1.81806137402
-1.82994625409
-0.0910019815599
0.0894627495481
1.83148548611
-1.84135220323
-0.0817140164298
0.0804123708614
1.84265384881
-1.85127517802
-0.0741978521723
0.0730154528704
1.85245757732
-1.86057849169
-0.0681422121836
0.0669937572341
1.86172694664
-1.86973531107
-0.0629577750079
0.0618201172225
1.87087296886
-1.87871373161
-0.0580018618424
0.0569081528243
1.87980744063
0.00837811498582
-1.81149320087
1.81153541793
-0.0084203319356
-1.79185619164
-0.039829739827
0.0395703310215
1.79211560048
-1.79484457144
-0.0724638132956
0.0719218512799
1.7953865335
-1.80050967012
-0.109454846138
0.108504403393
1.8014601129
-1.80998709986
-0.150730718453
0.149208275678
1.81150954266
-1.82472934552
-0.196013667078
0.193713465902
1.82702954671
-1.84652774009
-0.244747059335
0.241422168738
1.84985263072
-1.87751921984
-0.295848367101
0.291206933246
1.88216065374
-1.92005393789
-0.347404103339
0.341160558588
1.92629748269
-1.97628498752
-0.396291334248
0.388214428964
1.98436189284
-2.04748914327
-0.437747207555
0.427799642941
2.05743670795
-2.13286939911
-0.465621960591
0.454109104987
2.14438225472
-2.22848836411
-0.473669468108
0.461326612952
2.24083121928
-2.32729844178
-0.458109843139
0.445954749103
2.33945353583
-2.42102710561
-0.419298682057
0.408319973604
2.43200581407
-2.50359499087
-0.362366954835
0.352969044003
2.5129929017
-2.57294457443
-0.292025446183
0.284321805916
2.5806482147
-2.62945900407
-0.212271139589
0.206035827004
2.63569431665
-2.67424797709
-0.122465010292
0.117763580657
2.67894940673
-2.70479512506
-0.0198128877605
0.0173294465558
2.70727856629
-2.71335841953
0.096729346819
-0.0957309972022
2.71236006993
-2.68966165693
0.221195119188
-0.215562968239
2.68402950601
-2.62720349521
0.340016033128
-0.329488906634
2.61667636874
-2.52817170019
0.436874381135
-0.422401248488
2.51369856758
-2.40338751121
0.499527356294
-0.482854283383
2.38671443833
-2.26762957093
0.523150311535
-0.50612530643
2.25060456587
-2.13456011723
0.509489114683
-0.493603099003
2.1186741016
-2.0144896263
0.465184249883
-0.451445245641
2.0007506221
-1.91359967442
0.398788439472
-0.387680159405
1.90249139439
-1.83435023221
0.318435715761
-0.310073647393
1.82598816388
-1.77706404657
0.231699846586
-0.226004605311
1.77136880532
-1.72241932827
0.116442451831
-0.104291913646
1.71026879013
-1.58405782954
-0.14788326395
0.163908399001
1.56803269452
-1.552479809
-0.252765757415
0.245020021343
1.56022554512
-1.60286292929
-0.219946921445
0.216133161175
1.6066766896
-1.63378211238
-0.210424021383
0.206550988993
1.63765514479
-1.66356222986
-0.200401613917
0.196787461736
1.66717638206
-1.69203094914
-0.190931441811
0.187444323118
1.69551806785
-1.71946899224
-0.18105767128
0.177707749165
1.72281891437
-1.74567540883
-0.170268323949
0.167096987597
1.74884674519
-1.77027251133
-0.158342619148
0.155402925628
1.77321220486
-1.79280999201
-0.145256137401
0.142609261819
1.79545686761
-1.81272801413
-0.13109160418
0.128823719807
1.81499589851
-1.82923992618
-0.116328675276
0.114541471505
1.83102712997
-1.84179557606
-0.102346641136
0.101040265904
1.8431019513
-1.85101481099
-0.0908801298288
0.0898806241612
1.85201431667
-1.85863264109
-0.0826215218136
0.0816889470024
1.8595652159
-1.86637871178
-0.0768293413524
0.075795183704
1.86741286943
-1.87509930391
-0.0720427125774
0.0708974706147
1.87624454587
-1.8842848215
-0.0668555732732
0.0657298297131
1.88541056506
0.00860370317002
-1.86220994437
1.86222002627
-0.00861378492849
-1.84439012782
-0.0413733993824
0.0412407201799
1.84452280709
-1.84605083347
-0.0758870876227
0.0755627381559
1.84637518299
-1.8496512863
-0.115761781453
0.115121829105
1.85029123869
-1.85634025921
-0.161271362065
0.160144128612
1.8574674927
-1.86769291814
-0.212562219598
0.210715039786
1.86954009801
-1.88584238662
-0.269578457026
0.266696910881
1.88872393283
-1.91362504895
-0.331814997435
0.327491257147
1.91794878929
-1.95465753744
-0.397701827437
0.391430641287
1.96092872364
-2.01309161385
-0.463926328725
0.45519517829
2.02182276435
-2.09256408634
-0.524150364605
0.51263256088
2.10408189013
-2.19405976143
-0.568617357648
0.554533019039
2.20814410006
-2.31289338835
-0.58585984909
0.570308810962
2.32844442646
-2.43766251048
-0.568470953237
0.553177157209
2.4529563065
-2.55305827989
-0.516183463028
0.503172656164
2.56606908671
-2.64923344897
-0.443687018041
0.432945556998
2.65997491001
-2.72677005225
-0.357328583154
0.348958405939
2.73514022944
-2.78932421742
-0.267138911825
0.259879864956
2.79658326428
-2.84540468736
-0.168656270947
0.16196441657
2.85209654174
-2.89504765624
-0.0508255423642
0.0455982863635
2.90027491226
-2.92449668274
0.0965200383336
-0.097637755525
2.92561439995
-2.91061170824
0.267471353655
-0.261683458567
2.90482381318
-2.83663631734
0.437401662307
-0.423806818647
2.8230414737
-2.70446015769
0.575032366616
-0.555268909851
2.68469670096
-2.5336391331
0.658650138367
-0.63591198447
2.51090097923
-2.35056970152
0.682992283479
-0.660443908887
2.32802132698
-2.17731068467
0.655332620388
-0.635124521198
2.15710258553
-2.02732980766
0.588259908602
-0.571530757008
2.01060065611
-1.90696425647
0.495525494112
-0.482662440642
1.89410120304
-1.81737317837
0.38881938369
-0.379713585796
1.80826738052
-1.75672352677
0.277276199196
-0.271586646432
1.75103397405
-1.72135523725
0.16686734358
-0.163267982499
1.71775587621
-1.667888829
-0.0232795682934
0.0355797244672
1.65558867287
-1.58692206428
-0.277976255197
0.278857642091
1.58604067742
-1.61719578742
-0.252742604897
0.248483424428
1.62145496791
-1.64507738271
-0.239978592585
0.236486053449
1.64856992187
-1.6733749189
-0.228975235675
0.225435782683
1.67691437191
-1.70180506971
-0.219108346533
0.215553810139
1.70535960613
-1.73007149141
-0.208460240398
0.204968169737
1.73356356208
-1.75756085106
-0.196392828678
0.193044411097
1.76090926866
-1.78361675944
-0.1826621071
0.179535125267
1.78674374129
-1.80770262812
-0.167275807601
0.164424289361
1.81055414637
-1.82926869688
-0.149917533891
0.147465015624
1.83172121516
-1.84660007223
-0.130337270884
0.128603265479
1.84833407765
-1.8574006193
-0.111064910984
0.110182366055
1.85828316423
-1.86251205993
-0.0965759644695
0.0961388586434
1.86294916576
-1.86591436742
-0.0882331979227
0.0877559021494
1.8663916632
-1.87101721009
-0.084569735396
0.0836536641321
1.87193328136
-1.88007010115
-0.0818156323762
0.0804912782027
1.88139445532
-1.8906491752
-0.0763333737437
0.0750854400638
1.89189710888
0.00853641636474
-1.90729415117
1.90726274409
-0.00850500914896
-1.89055646605
-0.0417092825507
0.0417469682198
1.89051878047
-1.89041043501
-0.0772047466106
0.0771809271406
1.8904342546
-1.89111733739
-0.11900345569
0.118807219692
1.89131357348
-1.89373106891
-0.167784185882
0.167252629403
1.89426262548
-1.89979268821
-0.224247961056
0.223144290186
1.90089635918
-1.91158754103
-0.28917186907
0.287137395307
1.91362201492
-1.93255301232
-0.363145354109
0.359647440582
1.93605092593
-1.96773165344
-0.445948405075
0.440221986513
1.97345807207
-2.02409805526
-0.535199732634
0.526246713852
2.03305107411
-2.10990867172
-0.623733127029
0.610551985491
2.1230898133
-2.2313401062
-0.696572918982
0.678879380622
2.24903364454
-2.38768367635
-0.733827756661
0.71229753996
2.40921389304
-2.55342922092
-0.713815217467
0.692615138936
2.57462929928
-2.69747368796
-0.629950213876
0.614906872488
2.71251702935
-2.80418068287
-0.534511861957
0.522732342464
2.81596020243
-2.88382924876
-0.421923945644
0.414663004518
2.89109018993
-2.94265781633
-0.326248378551
0.319188868458
2.94971732643
-3.00910128106
-0.234167491738
0.224752178986
3.01851659381
-3.09190149829
-0.115519484363
0.104609182736
3.10281179992
-3.16875537975
0.0664055570991
-0.0729568292966
3.17530665196
-3.18524543506
0.310112982864
-0.305439853775
3.180572306
-3.09979357699
0.565587248741
-0.547375753581
3.08158208185
-2.91526721979
0.768466213241
-0.740241524769
2.88704253134
-2.67217056959
0.879490444292
-0.847530631848
2.64021075717
-2.41953825448
0.896574459161
-0.866291974452
2.38925576982
-2.19233674498
0.840795546646
-0.81514807887
2.16668927725